 Lammps data file for helix_gr
 
        1052 atoms
           1 atom types
 
  -50.00000       150.0000     xlo xhi
  -50.00000       150.0000     ylo yhi
           0   50.00000     zlo zhi
 
  Atoms
 
      1      1   49.9960   53.3220   38.4810
      2      1   49.9780   43.2780   28.7665
      3      1   50.0240   62.5900   20.4580
      4      1   50.3260   58.3640    5.8580
      5      1   50.0380   52.9940   41.0250
      6      1   50.0400   46.5420   22.3810
      7      1   50.0420   41.6300   30.9380
      8      1   50.0480   39.0600    0.2095
      9      1   50.0570   43.7190    6.8455
     10      1   49.9390   38.9010   35.0895
     11      1   50.0660   40.1700   32.9775
     12      1   50.2140   59.0050    6.8245
     13      1   49.9160   46.0520   23.8355
     14      1   49.9120   58.7440   28.6745
     15      1   50.0910   55.3220    1.7165
     16      1   50.0930   44.8890   26.6445
     17      1   49.8640   61.4590   10.9915
     18      1   50.1400   54.6370    0.3925
     19      1   50.3500   37.1920   40.9695
     20      1   49.8510   42.9500    5.6135
     21      1   49.8490   62.5990   14.6235
     22      1   50.1720   45.8430   10.7490
     23      1   50.1990   47.0190   18.0320
     24      1   50.2160   39.7190    1.5220
     25      1   50.2170   53.6330   47.4735
     26      1   49.7810   56.5440   31.6470
     27      1   50.2250   47.0040   19.4765
     28      1   49.7640   61.4460   24.2975
     29      1   50.2440   62.8820   17.1125
     30      1   49.7230   37.9980   47.5360
     31      1   49.7170   37.9170   37.3255
     32      1   49.7060   56.6240    4.0370
     33      1   50.2970   53.3680   46.0675
     34      1   50.3030   57.6730   29.6480
     35      1   50.3040   45.1350    9.4055
     36      1   50.3150   62.3530   13.2485
     37      1   50.3380   54.7290   33.5495
     38      1   49.5840   47.0520   16.0120
     39      1   49.8190   37.3380   39.5625
     40      1   50.4140   37.6630   38.6555
     41      1   49.5860   60.1540    8.7875
     42      1   49.5570   37.6240   46.1640
     43      1   50.4780   62.1800   21.8590
     44      1   50.4990   44.3980   28.0130
     45      1   50.6190   53.0430   43.4020
     46      1   50.5380   59.8660   26.5470
     47      1   49.4590   62.0400   22.9420
     48      1   50.5570   38.5250   36.3610
     49      1   49.4170   57.5220   30.7245
     50      1   50.5930   42.7520   30.1460
     51      1   49.4000   41.3650    3.1720
     52      1   50.6150   37.1610   43.8710
     53      1   50.6320   41.1060    3.9380
     54      1   49.3670   61.8200   12.2645
     55      1   49.3620   45.4420    8.3405
     56      1   49.3420   46.9710   13.6815
     57      1   50.6620   41.1730   32.1270
     58      1   50.7540   52.8910   39.5900
     59      1   49.2980   57.3200    5.3510
     60      1   50.7090   39.7510   34.1705
     61      1   49.2900   52.9020   44.1455
     62      1   49.2750   44.7590    7.0960
     63      1   50.7310   46.2990   13.2080
     64      1   49.1850   37.1450   43.2245
     65      1   50.7580   56.9940    3.3530
     66      1   49.2380   55.5570   33.7870
     67      1   50.7620   37.3190   45.3180
     68      1   49.2360   40.6580    2.1070
     69      1   49.2190   52.8860   45.4735
     70      1   50.7920   41.8960    5.1625
     71      1   49.1350   59.2900    7.7325
     72      1   50.7940   62.8090   15.5795
     73      1   50.8060   55.6660   31.4290
     74      1   49.1070   47.0630   17.3220
     75      1   49.1640   53.5800   49.8730
     76      1   49.1580   54.8740    2.5675
     77      1   50.8590   58.8860   27.5775
     78      1   49.1350   60.5200   26.5455
     79      1   50.8890   52.8870   41.9975
     80      1   50.7110   53.1770   37.0485
     81      1   49.1030   53.1280   48.2755
     82      1   50.9130   60.4840    8.3660
     83      1   49.1750   37.1360   41.8365
     84      1   51.0100   46.1450   26.2015
     85      1   49.0440   46.7900   10.9985
     86      1   50.9780   46.6400   24.7365
     87      1   49.0180   60.6640   10.1165
     88      1   49.0110   44.5580   25.7340
     89      1   50.9920   56.3220    2.1525
     90      1   49.0070   55.5030    3.6875
     91      1   60.0100   58.1110   10.2565
     92      1   60.0180   52.5650   48.2310
     93      1   51.0020   62.6190   19.4870
     94      1   39.9690   50.3480   38.9600
     95      1   39.9570   56.3620   19.9495
     96      1   60.0710   53.7230   15.8930
     97      1   39.9270   42.0540   36.5710
     98      1   60.0760   42.8340    4.1395
     99      1   39.9080   53.5590   19.1655
    100      1   60.0990   56.7690    5.0235
    101      1   60.1220   43.0200   45.8700
    102      1   39.8660   45.4730   40.7140
    103      1   60.1430   56.0290   15.0560
    104      1   39.8320   43.2950   39.3280
    105      1   60.1870   47.0210   44.4155
    106      1   48.9810   54.5240   36.1890
    107      1   51.0200   54.7180   32.3230
    108      1   39.7510   57.5480   27.1725
    109      1   39.7230   42.8250   31.5465
    110      1   60.2940   55.9910    3.7555
    111      1   39.6690   49.0500   22.0335
    112      1   39.6670   42.3320   34.2330
    113      1   60.3750   45.6920   44.7795
    114      1   39.6230   45.3030   26.6175
    115      1   60.3950   44.3220    6.6985
    116      1   39.5960   56.1300   30.7805
    117      1   39.5760   46.2170   25.3515
    118      1   39.5650   48.0680   23.1580
    119      1   60.4360   42.4590    0.2295
    120      1   60.4740   48.1890   45.3645
    121      1   48.9500   46.6560   20.0680
    122      1   51.0520   37.9460   48.1355
    123      1   39.4540   57.0510   22.8130
    124      1   48.8510   53.6940   38.6470
    125      1   39.4320   57.3200   24.2730
    126      1   60.5730   51.7630   14.4085
    127      1   60.6250   42.8260   48.7470
    128      1   60.6480   53.2270   14.6690
    129      1   39.3510   55.3700   20.8370
    130      1   60.6580   57.0250    7.7050
    131      1   39.3300   56.4230   29.3550
    132      1   60.6700   54.3240    1.5830
    133      1   39.3160   53.9370   20.4195
    134      1   39.3100   47.5550   39.4360
    135      1   60.7140   56.5140   12.6170
    136      1   39.2850   46.1120   39.5140
    137      1   60.7190   55.6020   13.7825
    138      1   39.2540   43.9070   38.1775
    139      1   60.7870   53.3860    0.4820
    140      1   60.7880   44.1290   46.6405
    141      1   39.2120   43.2730   36.8020
    142      1   39.2090   51.4810   21.1460
    143      1   39.2060   54.6080   32.7450
    144      1   60.8010   50.2990   47.2835
    145      1   60.8250   49.8620   12.7860
    146      1   60.8620   51.3500   48.3165
    147      1   60.8680   56.9020   10.1685
    148      1   60.8780   48.0410   11.0380
    149      1   60.6960   45.4570    7.8700
    150      1   39.1010   49.5880   38.0605
    151      1   39.0920   51.4910   36.5030
    152      1   60.9200   45.4260   46.1660
    153      1   39.0760   44.5700   29.0500
    154      1   39.0160   53.0260   34.5820
    155      1   39.0140   55.7190   22.2350
    156      1   60.9870   43.9850    4.3605
    157      1   48.9000   62.8280   17.4885
    158      1   51.1000   62.8020   18.0360
    159      1   38.9920   50.4200   22.1710
    160      1   61.0540   54.1520   13.6085
    161      1   48.8940   56.4250   32.7780
    162      1   38.9260   45.4900   27.7210
    163      1   61.0760   55.1630    3.8075
    164      1   61.0780   43.9630   48.1950
    165      1   38.9150   45.3010   38.2880
    166      1   61.0900   51.2610   13.1370
    167      1   38.8990   56.5000   26.5220
    168      1   38.8970   54.9290   31.4685
    169      1   61.1190   44.6010    5.4525
    170      1   38.8760   52.8800   21.4295
    171      1   61.1280   47.8950   46.6040
    172      1   38.8530   48.1800   38.2655
    173      1   38.8410   43.5460   34.2210
    174      1   51.0550   46.7640   15.6195
    175      1   61.1670   56.0580   11.3215
    176      1   61.1920   56.3830    8.9040
    177      1   51.1190   45.6910   11.7730
    178      1   38.8060   43.9350   31.7055
    179      1   38.8020   56.3160   25.0830
    180      1   38.7440   48.3680   24.3375
    181      1   38.7330   50.1860   36.8935
    182      1   61.2900   54.2350    2.7385
    183      1   38.7030   47.3950   25.4995
    184      1   51.1300   60.8400   24.4325
    185      1   61.0390   47.4410    9.7400
    186      1   61.3120   49.4020   11.4520
    187      1   38.6880   44.0170   35.5840
    188      1   48.7380   47.3450   15.0265
    189      1   61.3470   46.5460   47.0130
    190      1   61.3750   48.9660   47.5685
    191      1   38.6200   51.8360   35.1790
    192      1   38.6060   53.3620   33.2625
    193      1   48.8520   42.6840   28.3995
    194      1   38.5110   44.8060   30.4345
    195      1   38.4960   55.4560   28.7445
    196      1   38.4880   54.6550   23.1310
    197      1   51.1520   43.4810    7.7150
    198      1   61.5430   53.6830   12.3240
    199      1   38.4270   44.3340   33.0545
    200      1   61.5240   52.1750    0.6990
    201      1   38.4210   45.9820   37.0515
    202      1   61.5820   51.1070   49.5565
    203      1   51.1590   47.2220   21.8840
    204      1   38.3850   53.2490   22.7425
    205      1   61.6160   44.9930   49.0790
    206      1   61.6360   44.7100    3.1885
    207      1   61.6540   52.2550   12.1130
    208      1   38.3460   55.4490   27.3200
    209      1   61.6230   54.6620    5.0355
    210      1   61.6610   54.6760   11.2025
    211      1   38.3340   47.4180   37.1070
    212      1   38.3270   50.7340   23.4650
    213      1   38.2990   54.9840   24.5190
    214      1   48.8300   46.2510   21.5655
    215      1   61.7540   46.2800   48.3715
    216      1   38.2360   45.3310   35.7230
    217      1   61.6130   46.4400    7.2230
    218      1   38.1820   49.6640   24.5070
    219      1   61.8400   55.0740    8.7350
    220      1   61.8450   45.8920    5.6850
    221      1   38.1340   46.7100   27.9330
    222      1   38.1220   49.5140   35.8955
    223      1   61.8790   45.1140    0.5465
    224      1   38.1110   47.6890   26.6725
    225      1   61.9220   53.2740    3.2880
    226      1   38.0530   52.1640   23.7530
    227      1   48.8040   45.1810   24.3255
    228      1   38.0380   53.7990   30.4280
    229      1   61.9740   48.6150   49.0715
    230      1   61.9930   50.3050   10.4530
    231      1   62.0110   54.2120    9.8805
    232      1   48.7980   43.2970    4.6575
    233      1   37.9710   48.1540   35.9040
    234      1   61.8890   48.3970    8.8080
    235      1   62.0690   51.7600   10.7625
    236      1   62.0840   54.4790    7.4125
    237      1   37.9020   54.0320   29.1300
    238      1   62.1210   49.7050    0.0260
    239      1   62.1340   47.2780   49.4655
    240      1   37.8660   52.4800   32.3810
    241      1   37.8650   45.6620   33.1915
    242      1   37.8580   53.8880   25.4755
    243      1   37.8470   46.1000   30.5410
    244      1   51.2170   38.4180   49.5130
    245      1   62.1360   53.4550    4.8465
    246      1   37.8270   46.1890   34.4970
    247      1   37.8080   54.1690   26.8375
    248      1   48.7800   62.7000   20.1885
    249      1   51.2240   47.2790   20.4770
    250      1   62.2550   46.0490    3.2380
    251      1   62.2690   47.9050    7.3970
    252      1   62.2810   46.6030    0.8025
    253      1   37.7160   52.4740   25.0975
    254      1   62.3070   52.7230    9.6515
    255      1   62.3160   49.7970    9.0810
    256      1   37.6700   47.0800   29.2665
    257      1   62.3320   46.6150    4.6420
    258      1   37.6590   50.0610   25.8470
    259      1   37.6500   47.5760   34.6225
    260      1   37.6070   52.5950   30.8230
    261      1   37.5790   46.5570   31.9490
    262      1   37.5770   49.0620   26.9520
    263      1   48.7550   39.2390   49.4685
    264      1   62.4890   47.0640    2.0590
    265      1   37.5050   51.0330   32.4895
    266      1   37.5050   53.1960   27.9085
    267      1   62.5230   53.0580    7.2060
    268      1   37.4660   51.4410   26.1495
    269      1   62.5480   49.5700    1.6745
    270      1   62.5760   52.1630    8.2995
    271      1   37.3990   48.4780   33.4630
    272      1   48.7380   61.2200   25.3560
    273      1   62.6290   52.4360    5.7080
    274      1   62.6610   50.6920    8.0385
    275      1   62.6750   48.6760    6.3925
    276      1   37.3060   51.8820   27.5985
    277      1   62.7010   48.0350    4.9710
    278      1   37.2910   47.9860   32.0950
    279      1   62.7200   48.4070    2.5765
    280      1   48.7280   41.1440   30.5445
    281      1   37.2700   48.4860   29.4985
    282      1   37.2500   49.4860   28.3430
    283      1   37.2030   51.3250   30.0755
    284      1   62.8150   50.1090    6.6775
    285      1   37.1720   50.9250   28.6865
    286      1   37.1690   50.3350   31.1520
    287      1   62.8370   50.9590    5.4405
    288      1   37.1570   48.9350   30.9190
    289      1   62.9050   50.2830    4.1865
    290      1   62.8560   48.8110    4.0845
    291      1   51.3110   44.2150    9.0310
    292      1   51.3270   61.6610   10.6550
    293      1   48.6440   53.1560   41.1110
    294      1   51.3630   55.0330   49.5765
    295      1   48.6350   39.7820   32.6465
    296      1   48.6330   47.2740   12.4205
    297      1   51.5890   58.5880    5.1720
    298      1   51.3950   56.6560   29.4250
    299      1   48.5940   38.6480   48.1725
    300      1   51.4060   54.4050   48.2485
    301      1   48.5770   59.4620   28.6560
    302      1   51.4580   37.3080   41.4855
    303      1   48.5230   46.6430    8.5690
    304      1   51.5560   45.2930   28.8680
    305      1   48.5080   42.5020    3.4405
    306      1   51.5070   59.9600   25.4930
    307      1   51.5350   55.6270   30.2830
    308      1   51.5440   39.6180    2.1745
    309      1   48.4330   38.6370   34.8615
    310      1   48.4290   53.5460    2.1080
    311      1   48.4220   55.3740   35.0030
    312      1   48.4080   62.3790   14.9960
    313      1   51.6070   46.3370   14.2695
    314      1   48.3860   52.9370    0.7380
    315      1   51.6160   47.1360   17.5850
    316      1   51.6220   43.5160   30.7185
    317      1   48.3530   45.2300    5.9325
    318      1   48.3360   47.2840    9.8835
    319      1   51.7150   40.2860    3.4130
    320      1   51.7150   61.6960   22.0770
    321      1   48.2810   52.4300   46.5505
    322      1   48.2580   37.8070   37.1290
    323      1   48.1480   37.8240   45.4605
    324      1   51.7450   37.2410   42.9285
    325      1   48.2400   62.7470   18.8980
    326      1   48.2380   52.4030   47.9300
    327      1   51.7700   62.3780   12.9215
    328      1   48.2220   54.3160   37.3770
    329      1   51.7840   57.8950    3.7905
    330      1   51.8060   41.8580   32.5910
    331      1   51.8080   61.1960    9.3585
    332      1   51.8190   53.5010   32.1520
    333      1   48.1710   56.7680    6.2850
    334      1   48.1530   41.6710   29.3860
    335      1   51.8520   37.9420   39.0560
    336      1   48.1440   54.9360    4.6750
    337      1   48.1200   60.2580   27.5575
    338      1   51.9810   52.3560   39.2980
    339      1   48.0130   37.6170   44.0025
    340      1   48.2860   37.3240   39.5825
    341      1   48.0830   44.5360    4.7255
    342      1   48.0650   58.2580   30.7815
    343      1   48.0450   52.6300   43.6310
    344      1   51.9570   46.8880   16.4460
    345      1   51.9730   38.9570   36.7560
    346      1   51.9760   47.7110   24.1140
    347      1   51.9820   40.3330   34.5865
    348      1   48.0170   62.2380   22.7175
    349      1   51.9850   44.7280   30.1960
    350      1   48.0090   62.5360   16.3285
    351      1   52.0200   57.8630   27.4015
    352      1   47.9730   61.4320   12.6550
    353      1   52.0320   47.8030   22.7160
    354      1   47.9660   53.5500   39.7440
    355      1   52.0360   41.8390    5.9775
    356      1   47.9460   43.0250   27.2695
    357      1   47.9450   41.0100    1.1670
    358      1   52.0630   60.9500   23.2950
    359      1   47.9180   40.2990   31.4030
    360      1   52.0890   37.4250   45.8570
    361      1   47.8740   47.2540    7.4320
    362      1   47.8710   43.7510   26.0975
    363      1   47.8670   58.5720    8.4365
    364      1   52.1560   52.4200   33.1245
    365      1   52.1660   56.7050   28.2750
    366      1   52.4360   52.0350   37.8585
    367      1   52.1890   42.6560    7.2985
    368      1   52.1890   62.0370   11.5295
    369      1   47.6670   47.0640   17.9410
    370      1   47.7910   46.5240    6.0395
    371      1   52.2130   37.6780   47.3025
    372      1   52.2140   43.0790   31.9740
    373      1   47.9200   37.3200   40.8630
    374      1   47.7740   52.7670    3.0275
    375      1   52.2260   62.6750   15.2425
    376      1   47.7720   39.0990   33.6115
    377      1   52.2450   54.4520   29.9160
    378      1   47.7420   62.5080   21.2090
    379      1   52.2730   56.5400    1.4315
    380      1   47.7250   60.1010   10.5315
    381      1   47.7150   55.5050    5.9585
    382      1   47.7130   40.2620   49.9540
    383      1   52.3150   53.2740   30.8910
    384      1   47.6820   45.1090   23.4625
    385      1   47.6490   52.8480   42.2105
    386      1   52.3540   47.7000   19.9605
    387      1   47.6400   53.5270    4.4745
    388      1   52.3650   37.7330   40.4795
    389      1   47.6160   59.1260   29.6870
    390      1   52.3940   62.1590   19.8540
    391      1   47.5920   38.1510   35.9365
    392      1   47.5910   46.7110   19.3335
    393      1   47.5830   45.6890   22.1570
    394      1   52.4320   52.5640   41.5910
    395      1   52.4460   44.9640   11.3255
    396      1   47.5530   57.0480   32.8935
    397      1   47.5380   51.6750    0.2650
    398      1   47.5310   48.3250    9.9215
    399      1   52.4740   44.2300   10.0025
    400      1   52.4830   41.4380   33.8570
    401      1   52.4990   55.8600    0.1730
    402      1   52.5110   62.5520   17.6000
    403      1   47.4810   61.7450   14.0120
    404      1   47.4730   57.3440    7.7725
    405      1   47.4680   43.0240    2.5135
    406      1   52.5560   38.5130    0.1015
    407      1   47.3700   48.0690   15.0805
    408      1   47.4300   37.5920   38.3945
    409      1   52.5710   38.6280   38.1210
    410      1   47.4260   51.5740   48.9185
    411      1   47.3840   48.4290    7.5540
    412      1   52.6280   39.9160   35.9005
    413      1   52.6230   48.5810   26.5220
    414      1   47.3450   48.3030   12.6095
    415      1   52.6600   59.0600   25.3735
    416      1   52.6680   54.6360   47.7015
    417      1   52.6730   47.5290   18.5540
    418      1   52.6570   48.5900   24.9870
    419      1   47.3140   38.9740   47.4560
    420      1   47.3050   61.4970   25.1015
    421      1   47.3030   51.3890    2.7510
    422      1   52.7150   39.0540    1.4505
    423      1   52.7350   62.4890   13.9595
    424      1   52.7390   61.6570   20.9640
    425      1   47.2600   45.0910    3.6150
    426      1   47.2340   47.2530    4.8920
    427      1   52.7680   51.0680   32.8550
    428      1   52.7710   45.5200   31.1870
    429      1   47.2270   48.8600    8.7300
    430      1   52.7780   51.8920   30.5255
    431      1   52.8000   52.1450   40.3225
    432      1   47.1770   60.5080   11.7970
    433      1   47.1680   51.8220   46.0380
    434      1   53.0290   50.8100   35.0135
    435      1   47.1640   55.8370   35.0835
    436      1   47.1500   42.2510    1.4175
    437      1   47.1490   59.0290    9.8155
    438      1   52.8530   57.9440   26.2515
    439      1   47.1430   38.4790   46.1550
    440      1   47.1260   49.1970    6.4615
    441      1   47.1340   52.5190    5.4205
    442      1   52.8770   50.8250   31.4135
    443      1   47.1100   50.9060    1.3585
    444      1   52.8920   47.0750   30.7720
    445      1   52.8830   49.2420   29.4230
    446      1   47.0870   57.9030   31.8195
    447      1   52.9210   54.2640   28.6040
    448      1   47.1060   50.6940    3.9140
    449      1   47.0740   48.6270    5.1210
    450      1   52.9450   48.5160   22.3075
    451      1   47.0210   51.2660    5.2340
    452      1   52.9820   55.4880   27.8210
    453      1   53.0070   40.3340    4.0260
    454      1   53.0030   49.5350   30.7930
    455      1   46.9760   46.5540    3.6885
    456      1   46.9750   61.9320   23.7395
    457      1   53.0290   37.5030   43.3880
    458      1   52.8500   54.0820   46.4810
    459      1   46.9490   48.8620   11.2270
    460      1   53.0420   50.3500   28.5535
    461      1   46.9360   44.3740    2.6200
    462      1   46.9460   50.4220    6.5800
    463      1   46.9980   49.3280    3.7825
    464      1   53.0770   45.9170   13.6625
    465      1   53.0810   51.8050   29.0590
    466      1   53.0870   62.4970   16.3395
    467      1   46.8950   54.7210   37.2780
    468      1   46.8930   52.0280   44.5990
    469      1   46.8700   54.7390    7.0400
    470      1   53.1320   57.9560    3.1550
    471      1   53.1340   43.9940   32.7275
    472      1   53.1310   50.0760   27.1730
    473      1   53.2050   50.2460   33.7675
    474      1   53.1670   41.0980    5.3660
    475      1   46.7940   53.1620    6.7030
    476      1   53.2170   62.1160   18.7585
    477      1   46.7810   62.3990   18.2645
    478      1   53.2270   37.5280   44.8690
    479      1   53.2410   48.3760   20.8640
    480      1   53.2460   61.1360    8.9575
    481      1   53.4310   51.1510   37.5910
    482      1   46.7340   50.0270    8.7620
    483      1   53.2780   60.1100   23.2580
    484      1   53.2830   45.3110   32.3165
    485      1   46.6160   48.7120    2.7355
    486      1   46.7140   48.5620   13.8330
    487      1   46.7100   41.4850   28.9970
    488      1   53.2940   52.9990   28.1120
    489      1   46.7730   50.8580    7.6985
    490      1   46.6820   62.1940   16.7915
    491      1   46.6740   60.5520   27.3835
    492      1   46.6550   49.6820    1.3905
    493      1   53.3480   53.0500   43.7910
    494      1   46.6430   43.8480   25.2105
    495      1   46.6390   56.6440   33.9830
    496      1   53.3860   57.2730    1.9965
    497      1   46.6140   42.2360   27.7520
    498      1   46.6130   53.6700   39.5890
    499      1   45.7890   38.2010   41.0375
    500      1   46.5720   40.6740   49.0955
    501      1   53.4290   49.6150   24.4105
    502      1   53.6220   50.4470   36.2220
    503      1   53.4640   45.2230   12.3040
    504      1   53.4670   42.7040    8.0105
    505      1   46.5310   47.2540    2.6110
    506      1   46.5140   56.3970    8.5255
    507      1   53.4900   46.8780   15.9530
    508      1   53.5800   59.0490   24.2470
    509      1   46.4640   50.6260   48.2985
    510      1   53.5510   42.2560   34.5130
    511      1   46.4480   52.2090    7.6675
    512      1   46.4450   44.4960   24.0140
    513      1   53.5570   52.5160   42.5085
    514      1   53.5640   37.9230   47.8085
    515      1   46.4270   40.1770   31.1525
    516      1   53.5930   43.5440    9.3990
    517      1   46.3970   45.8400   21.4525
    518      1   53.6270   38.1550   40.9280
    519      1   46.3670   55.0550    8.1200
    520      1   46.3330   39.9760   47.8930
    521      1   53.6700   51.4130   26.3645
    522      1   53.6970   48.9140   33.7820
    523      1   46.2840   46.4560   20.1265
    524      1   46.2790   55.4300   36.1365
    525      1   53.7210   49.5180   22.9955
    526      1   46.2740   62.2970   20.8990
    527      1   53.7420   38.2870   49.2300
    528      1   46.2560   61.0910   26.1170
    529      1   53.7500   60.5210    7.5555
    530      1   46.2320   39.0820   33.4590
    531      1   53.7680   61.8510   11.2885
    532      1   53.7730   55.3340   26.4995
    533      1   46.2240   61.2530   14.4515
    534      1   53.7910   56.6310   25.8035
    535      1   53.7920   52.8800   26.8005
    536      1   46.2080   45.0050    1.6100
    537      1   53.7940   43.5920   34.0000
    538      1   53.8060   55.8610   49.5585
    539      1   46.1870   42.7730    0.4920
    540      1   53.8160   40.6190   36.4615
    541      1   46.1790   59.4660   29.5390
    542      1   53.8270   46.2700   33.2290
    543      1   53.8320   39.1940   38.6045
    544      1   46.1620   50.6210   10.0250
    545      1   46.1480   46.5860    1.6490
    546      1   46.1410   52.6960   41.8450
    547      1   46.1210   38.2790   35.8665
    548      1   46.1180   50.7160   46.8715
    549      1   46.1110   58.2530   10.4010
    550      1   46.0730   49.9920   11.2990
    551      1   46.0680   48.9140    0.2330
    552      1   46.0630   37.8210   38.3865
    553      1   53.9520   46.3690   14.6690
    554      1   53.9530   55.1650   48.3360
    555      1   53.9580   51.0580   25.0960
    556      1   53.9810   47.8520   18.1235
    557      1   54.0050   37.9920   42.3935
    558      1   54.0050   60.8770   20.9985
    559      1   45.9850   59.8650   12.3435
    560      1   54.0620   39.2820    1.9885
    561      1   46.0290   38.8390   45.3690
    562      1   45.9140   54.2950   38.3035
    563      1   54.0970   62.1320   13.6235
    564      1   45.9000   52.8420    8.9940
    565      1   54.1040   51.3710   40.0565
    566      1   45.8570   40.8210   29.9245
    567      1   45.8410   41.9440   49.3830
    568      1   45.8290   56.9580    9.8775
    569      1   45.8240   61.5440   15.8985
    570      1   54.1840   39.8940    3.3250
    571      1   54.1980   60.0750   22.0745
    572      1   54.2110   53.9910   25.9710
    573      1   45.7770   44.1760    0.5775
    574      1   54.2310   53.9020   45.9800
    575      1   54.2390   41.8550   35.8035
    576      1   54.1490   59.2290    4.9865
    577      1   54.2480   61.4050    9.9415
    578      1   45.7420   54.1120    9.1090
    579      1   54.2720   50.6820   38.7635
    580      1   45.7050   49.2240   48.9055
    581      1   54.2980   58.5440    3.8170
    582      1   45.6930   60.0960   28.3345
    583      1   45.6780   47.3010    0.4660
    584      1   45.6670   53.1610   40.5570
    585      1   54.3340   48.2680   35.1935
    586      1   45.6640   58.2320   31.7020
    587      1   54.3760   38.9300   39.9880
    588      1   54.3930   49.1680   36.2765
    589      1   45.6050   39.6440   32.2435
    590      1   54.3960   48.9980   20.3170
    591      1   54.3980   47.4550   16.8655
    592      1   54.3980   45.8580   34.3945
    593      1   45.6010   49.5060   13.6710
    594      1   45.5930   51.9370   10.1550
    595      1   54.4230   40.2260   37.8005
    596      1   45.5640   61.7920   23.3495
    597      1   45.5550   51.5450   44.0310
    598      1   54.4540   62.0260   16.1550
    599      1   45.5250   60.2960   13.6410
    600      1   54.4950   41.3160    5.9410
    601      1   45.4950   58.6820   11.6635
    602      1   54.5140   44.4960   34.7540
    603      1   54.5200   37.9420   45.3390
    604      1   54.5360   61.4570   18.6440
    605      1   45.4530   42.5120   27.0775
    606      1   54.5500   53.2230   44.6620
    607      1   45.4490   43.3540   25.7230
    608      1   45.4220   38.7490   34.6390
    609      1   45.4200   38.1640   37.0505
    610      1   54.6420   42.1050    7.2650
    611      1   45.3560   50.3770   12.5195
    612      1   54.6510   50.3710   22.4130
    613      1   54.8530   56.2710   24.4565
    614      1   54.6910   52.1060   24.2515
    615      1   54.7100   61.8350   12.3450
    616      1   54.7340   38.0840   46.8330
    617      1   45.2660   44.8000   23.3410
    618      1   54.7600   57.1070    1.4340
    619      1   54.7650   46.8290   35.3240
    620      1   45.2240   61.8980   21.9390
    621      1   45.2090   45.5190   22.1005
    622      1   45.2070   51.9990   42.7145
    623      1   45.2060   58.9280   30.5160
    624      1   45.1940   40.4810   46.9955
    625      1   45.1910   56.9110   33.8650
    626      1   54.8180   48.6450   18.9830
    627      1   54.8200   53.6440   24.7595
    628      1   54.8340   43.7000    9.8805
    629      1   54.8790   45.0950   12.1120
    630      1   54.9040   51.9350   42.2525
    631      1   45.0840   46.8810   19.5815
    632      1   45.0580   47.5340   18.3290
    633      1   45.0470   44.7940   49.5340
    634      1   54.9540   56.3740    0.2545
    635      1   45.0410   55.9170   10.6185
    636      1   45.0330   50.0090   46.1505
    637      1   54.9790   60.7200   19.7745
    638      1   45.0190   54.6300   10.4605
    639      1   45.0090   48.8310   15.8755
    640      1   45.0080   46.3390   49.3835
    641      1   55.0490   61.8580   14.7935
    642      1   55.0510   38.6760   49.7430
    643      1   44.9480   39.8800   45.7730
    644      1   55.0700   50.0120   21.0825
    645      1   55.0710   51.2120   41.0645
    646      1   44.9140   52.3360   11.3475
    647      1   44.9070   42.5210   48.4380