 Lammps data file for helix_gr
 
        1496 atoms
           1 atom types
 
  -50.00000       150.0000     xlo xhi
  -50.00000       150.0000     ylo yhi
           0   50.00000     zlo zhi
 
  Atoms
 
      1      1   50.0050   68.7190   14.1855
      2      1   50.0080   46.7330   40.8525
      3      1   49.9860   44.1790   28.8705
      4      1   50.0300   57.0840   21.7550
      5      1   50.3420   31.3200   39.4985
      6      1   49.9640   56.2630    3.5485
      7      1   50.0380   59.4510   22.2605
      8      1   49.8890   63.3950   21.4885
      9      1   50.1140   68.3200   15.7080
     10      1   50.1220   31.1270   38.2390
     11      1   49.8640   53.7490    7.3050
     12      1   50.3450   32.4420   42.4910
     13      1   50.1750   40.9480   47.4395
     14      1   49.8160   54.3830    5.9230
     15      1   49.8130   45.8020   43.3845
     16      1   50.1960   42.3690   47.1840
     17      1   50.1990   59.9450    2.3440
     18      1   49.7950   66.1250    5.5070
     19      1   50.2100   32.8570   31.7715
     20      1   50.2260   65.8110   19.6050
     21      1   49.7500   53.7240   18.1380
     22      1   50.2520   63.7660    3.4300
     23      1   49.7440   61.3380    2.8475
     24      1   50.2580   66.8360   18.4215
     25      1   50.2590   55.9900   20.6905
     26      1   50.2600   57.3560    2.6250
     27      1   49.7240   68.7710   11.0205
     28      1   49.7210   46.9790   38.1140
     29      1   49.6930   44.2470   45.4865
     30      1   49.6900   67.0900    6.7430
     31      1   50.3170   46.2970   32.8155
     32      1   50.3270   45.8030   31.5180
     33      1   50.3410   39.4130   27.7940
     34      1   49.6580   41.7690   27.3665
     35      1   49.6570   68.4180    9.5020
     36      1   49.6530   58.7650    2.8660
     37      1   49.6520   31.3180   35.2920
     38      1   49.6140   62.0620   22.2120
     39      1   50.4140   53.0440   12.7135
     40      1   50.4180   60.8800   21.8980
     41      1   49.5810   34.1220   44.4440
     42      1   49.5680   46.9780   35.5680
     43      1   50.4440   52.9870   10.1645
     44      1   50.4440   38.0510   47.2815
     45      1   49.5550   34.5840   29.4990
     46      1   49.5540   36.6990   28.0715
     47      1   49.5370   43.3180   27.6670
     48      1   50.5290   62.4990    2.6605
     49      1   49.4640   53.0420   15.5735
     50      1   50.5760   33.2350   43.7875
     51      1   50.5600   40.9840   28.0415
     52      1   49.4240   54.6450   20.6740
     53      1   49.3920   31.6740   33.8120
     54      1   49.3800   46.2260   30.5320
     55      1   50.6300   45.0840   46.0820
     56      1   50.6350   58.3660   21.5970
     57      1   49.3610   42.9560   46.0385
     58      1   50.6510   32.2410   33.0610
     59      1   50.6570   54.1190    4.7700
     60      1   49.3130   38.5790   46.6335
     61      1   49.3080   46.0810   42.0060
     62      1   50.6950   54.9520    3.5315
     63      1   49.2980   45.5930   29.2065
     64      1   50.7320   34.6620   30.0470
     65      1   49.2650   46.7220   39.4830
     66      1   49.2490   31.7710   40.2330
     67      1   50.7610   53.4680   15.2995
     68      1   49.1880   38.9860   27.0200
     69      1   49.1850   40.0750   46.6485
     70      1   49.1810   53.6660   19.4945
     71      1   49.1800   53.4240    9.8285
     72      1   50.8230   37.0610   28.6795
     73      1   49.2700   32.3840   41.7125
     74      1   49.1470   44.7830   44.2015
     75      1   50.8970   67.7000    7.2475
     76      1   50.9000   68.3030    8.6705
     77      1   49.0860   47.0710   33.1350
     78      1   50.9350   46.6480   43.9235
     79      1   50.9460   46.6190   35.2065
     80      1   49.0530   67.4800   17.9865
     81      1   50.9530   54.5000   17.8730
     82      1   49.0430   52.9640   16.9820
     83      1   49.0360   56.7190   22.7680
     84      1   50.9760   52.9460    7.5465
     85      1   49.0160   63.9480    4.2535
     86      1   49.0110   47.0410   36.9350
     87      1   39.9990   61.5990   25.8160
     88      1   39.9940   57.5950   10.3555
     89      1   39.9910   34.3490   35.4080
     90      1   60.0120   65.7750    9.8930
     91      1   39.9720   60.4930   26.8410
     92      1   48.9970   52.9030   13.0715
     93      1   39.9450   54.4080   31.4355
     94      1   60.0610   61.5180   14.4560
     95      1   60.0690   50.7500   40.5915
     96      1   39.9210   40.4440   39.7025
     97      1   60.0840   43.4510   35.7580
     98      1   60.0910   40.9790   35.1430
     99      1   51.0100   43.8250   29.8640
    100      1   39.8800   60.0300   10.1420
    101      1   60.1270   64.0280    1.9170
    102      1   39.8710   65.7980   18.3735
    103      1   39.8620   58.2240   28.6630
    104      1   48.9860   65.5860   20.4160
    105      1   39.8330   52.2610   13.2915
    106      1   50.9540   36.6650   46.9555
    107      1   60.1970   34.1390   42.7810
    108      1   60.2260   64.5530   12.1610
    109      1   48.9910   35.5850   28.4060
    110      1   39.7430   35.7520   37.4960
    111      1   39.7420   50.2650   14.7900
    112      1   39.7260   56.9850   29.5870
    113      1   60.2920   48.1950    8.3855
    114      1   60.2980   34.3680   40.1625
    115      1   39.7010   63.5030   11.6125
    116      1   60.3030   60.9410   48.3905
    117      1   60.3030   48.7880   39.0785
    118      1   39.6940   34.3330   31.1140
    119      1   60.3120   65.8030    8.4325
    120      1   60.3710   62.0680   49.5190
    121      1   60.3840   45.0480    6.0455
    122      1   48.9560   53.9170    8.3430
    123      1   48.9560   68.1590   16.5710
    124      1   39.5310   44.1790   38.5085
    125      1   39.5240   56.3210   11.0875
    126      1   51.0480   63.6000   20.6860
    127      1   51.0480   68.8480   11.7255
    128      1   60.4820   46.6780   37.6560
    129      1   39.5170   34.2800   32.5590
    130      1   48.9480   56.5550    4.5410
    131      1   60.5250   39.6510   35.5075
    132      1   51.0540   43.2060   47.8810
    133      1   39.4500   65.4960   15.4255
    134      1   51.0560   31.3470   35.8595
    135      1   39.3960   64.9900   14.0615
    136      1   39.3740   61.1910   10.7680
    137      1   39.3670   48.4180   16.2230
    138      1   60.6420   44.5020   36.5230
    139      1   60.6520   42.9400    4.5270
    140      1   60.6560   63.3940   12.8285
    141      1   48.9340   59.2700   23.1955
    142      1   51.0680   52.8840   11.4295
    143      1   39.3050   58.7590   10.6250
    144      1   39.2980   53.5460   12.5850
    145      1   60.7130   59.1090   14.1630
    146      1   60.7340   42.1270   35.8015
    147      1   60.7730   65.2810    5.5660
    148      1   60.7950   64.8110   10.7430
    149      1   39.1970   42.7270   38.8045
    150      1   39.1940   35.3370   28.7530
    151      1   39.1930   46.3100   37.2295
    152      1   60.8160   58.8770   46.6555
    153      1   60.8160   35.1010   45.4980
    154      1   60.8510   46.1380    6.8610
    155      1   39.1480   51.3580   14.1055
    156      1   39.1230   46.3680   17.7475
    157      1   51.0900   65.9190    4.6860
    158      1   51.0910   47.1070   37.9950
    159      1   60.9190   60.6060   13.8615
    160      1   60.9220   36.0290   37.9375
    161      1   60.9580   37.1320   36.9465
    162      1   60.9690   56.8600   45.1115
    163      1   60.9760   35.7350   46.8085
    164      1   39.0170   38.3700   38.5050
    165      1   60.9960   64.7490    4.1450
    166      1   38.9880   44.2390   19.2975
    167      1   38.9530   48.3690   35.8305
    168      1   38.9320   36.6210   26.5315
    169      1   38.9290   39.7870   38.7945
    170      1   61.0850   56.7740   13.4710
    171      1   38.8980   62.9950   23.8315
    172      1   61.1500   54.8530   43.6495
    173      1   38.8480   35.1190   34.7305
    174      1   38.8290   49.3820   15.5630
    175      1   61.1800   37.2470   49.1545
    176      1   38.8120   50.3880   34.3925
    177      1   38.8040   62.0150   25.0665
    178      1   38.8010   42.1570   20.8690
    179      1   61.2220   54.5640   12.5125
    180      1   61.2430   52.3450   11.2345
    181      1   51.1250   46.3070   45.4045
    182      1   48.8740   64.4100   21.4310
    183      1   38.7360   35.0980   30.2115
    184      1   38.7340   38.2110   24.5350
    185      1   61.3080   52.8200   42.1740
    186      1   38.6890   40.1110   22.6140
    187      1   61.3170   40.9070    2.8860
    188      1   38.6740   63.1390   12.6425
    189      1   61.3280   59.9960   47.7095
    190      1   38.6650   44.9840   37.6550
    191      1   61.3360   44.0860    5.3620
    192      1   61.3460   50.2780    9.8370
    193      1   38.6540   59.8980   27.1685
    194      1   38.6520   36.5090   36.7580
    195      1   38.6350   65.0920   17.9645
    196      1   61.3680   35.2110   40.4350
    197      1   38.6250   58.7810   28.1415
    198      1   38.6240   52.4530   32.8845
    199      1   61.3880   34.9450   43.0295
    200      1   38.5960   35.0140   33.2300
    201      1   61.4040   65.0340    7.9350
    202      1   38.5900   54.5440   31.3555
    203      1   61.4690   63.1870    1.5105
    204      1   38.5130   64.9200   16.5560
    205      1   61.5000   58.2000   13.4440
    206      1   38.4960   47.4570   16.9880
    207      1   38.4760   63.8930   13.8340
    208      1   61.5250   50.8210   40.7745
    209      1   38.4400   56.4360   29.9690
    210      1   51.1580   44.6310   47.3305
    211      1   38.4030   60.9530   11.6885
    212      1   61.6110   57.8960   45.9760
    213      1   61.6140   62.2190    0.2320
    214      1   48.8380   55.5090    5.6770
    215      1   61.6290   39.4570   36.6060
    216      1   38.3640   56.2930   11.8540
    217      1   38.3620   36.1620   27.9140
    218      1   61.6450   64.8680    6.5565
    219      1   38.3540   47.1220   36.3875
    220      1   38.3380   45.3170   18.5600
    221      1   61.7210   62.4910   12.1645
    222      1   61.7280   48.7350   39.4210
    223      1   38.2590   37.7740   37.3080
    224      1   61.7440   42.0820    3.7830
    225      1   61.7490   36.0750   39.3015
    226      1   61.7640   35.3820   44.4245
    227      1   61.7900   55.8780   12.7075
    228      1   61.7910   48.4020    8.4185
    229      1   51.1810   68.7390   13.3240
    230      1   38.1870   43.2550   20.1045
    231      1   61.8200   55.8710   44.4585
    232      1   61.8260   38.1860   37.3360
    233      1   61.8350   61.1410   12.7630
    234      1   61.8370   46.4800   38.1510
    235      1   61.8390   41.9380   36.6410
    236      1   48.8160   47.2540   34.5160
    237      1   38.1360   49.2290   35.0095
    238      1   38.1330   36.1550   35.3590
    239      1   48.8110   32.8580   31.1830
    240      1   38.1010   37.5480   25.7365
    241      1   61.9010   44.3160   37.2270
    242      1   61.9060   53.6660   11.7035
    243      1   38.0790   42.1140   38.0730
    244      1   38.0650   53.9630   12.9705
    245      1   61.9620   51.4360   10.3975
    246      1   38.0290   61.9160   12.5770
    247      1   38.0260   41.2140   21.8000
    248      1   61.9760   53.8510   43.0025
    249      1   61.9830   63.9060    9.9905
    250      1   38.0070   40.6060   38.0160
    251      1   38.0010   58.6940   11.7600
    252      1   38.0010   51.3500   33.5510
    253      1   37.9860   39.2560   23.7050
    254      1   62.0410   35.5240   41.8515
    255      1   37.9180   55.4300   30.5310
    256      1   51.2070   56.1660   19.6810
    257      1   37.8800   63.0500   22.9905
    258      1   37.8560   64.4310   18.9840
    259      1   62.1440   51.8130   41.5985
    260      1   62.1710   49.4920    9.0775
    261      1   62.1860   63.9220    3.8725
    262      1   62.1950   39.1610    0.8895
    263      1   37.8050   53.4440   32.0525
    264      1   51.2210   57.1690    1.6305
    265      1   62.2080   36.5710   47.0920
    266      1   37.7740   55.1090   12.6495
    267      1   48.7750   31.1660   37.6575
    268      1   37.7170   63.5930   21.5255
    269      1   62.2880   40.2420    2.0105
    270      1   62.2920   64.1010    8.6430
    271      1   62.3010   40.5970   37.0810
    272      1   62.3100   37.3030   48.3565
    273      1   62.3170   46.3410    6.8680
    274      1   37.6510   51.6940   14.4035
    275      1   37.6480   35.7390   30.8635
    276      1   62.3610   49.7440   40.2875
    277      1   37.6160   35.7650   32.3565
    278      1   37.6050   59.7270   12.1970
    279      1   48.7600   37.6300   27.1655
    280      1   37.5960   61.2590   25.3235
    281      1   62.4480   43.0770   37.3020
    282      1   37.5300   57.5020   12.2570
    283      1   62.4790   62.7450   10.7445
    284      1   62.4880   63.1540    2.5070
    285      1   62.4960   47.5150   39.0300
    286      1   37.4940   63.3270   14.8810
    287      1   37.4770   63.8480   16.2390
    288      1   37.4730   60.2470   26.4005
    289      1   62.5310   58.6940   12.5490
    290      1   62.5360   45.2960   38.0075
    291      1   37.4360   44.3840   37.0825
    292      1   62.6180   61.5640    0.1985
    293      1   37.4030   49.6340   15.7590
    294      1   48.7400   65.1810    5.2315
    295      1   62.6270   60.0230   48.2470
    296      1   51.2640   53.2680   13.9265
    297      1   62.6590   60.1370   12.1695
    298      1   62.6640   64.0240    6.2560
    299      1   51.2680   44.8160   31.1860
    300      1   51.2700   64.7930    3.5875
    301      1   37.2980   58.0370   28.3990
    302      1   62.7250   37.0880   39.6675
    303      1   51.2730   64.8410   19.8175
    304      1   62.7500   44.3860    5.3420
    305      1   37.2480   38.5880   36.4730
    306      1   37.2480   56.9320   29.3025
    307      1   51.2760   31.1740   37.4095
    308      1   62.7660   38.0970   38.6935
    309      1   62.7820   47.5350    7.5670
    310      1   37.1850   42.9650   37.2045
    311      1   37.1240   36.9590   34.5480
    312      1   37.1080   47.6250   17.1780
    313      1   37.1030   53.0140   13.9755
    314      1   62.9030   36.3080   44.6850
    315      1   37.0910   36.7380   28.4860
    316      1   37.0840   40.0030   36.8915
    317      1   51.2920   33.7610   31.2060
    318      1   37.0690   61.3850   13.5500
    319      1   51.2940   40.2930   48.3475
    320      1   37.0210   46.6680   35.9305
    321      1   62.9820   63.6100    4.9935
    322      1   62.9960   56.2950   11.9100
    323      1   51.3010   38.4690   28.6270
    324      1   51.3010   59.8370    1.4705
    325      1   63.0820   57.8030   46.3505
    326      1   63.0860   36.5110   42.1360
    327      1   36.9070   45.5340   18.7105
    328      1   63.1030   42.4460    3.6710
    329      1   51.3110   47.2660   40.7975
    330      1   63.0830   60.6170   49.2860
    331      1   51.3130   67.7920   16.3605
    332      1   48.6860   68.8260   13.4915
    333      1   36.8610   63.5690   18.6490
    334      1   36.8590   36.6750   33.0460
    335      1   48.6840   41.2910   26.3520
    336      1   36.8350   36.5540   29.9775
    337      1   36.8180   50.8530   15.2845
    338      1   63.1880   36.8640   46.0420
    339      1   36.7950   62.1700   23.2755
    340      1   63.2080   51.8380   10.0310
    341      1   36.7890   43.4580   20.3475
    342      1   36.7850   38.0220   26.2365
    343      1   63.2630   45.5520    6.0320
    344      1   36.7320   62.0410   14.6620
    345      1   36.7310   48.8760   34.6335
    346      1   63.2730   40.5000   38.1710
    347      1   36.7200   60.0010   13.3340
    348      1   63.2860   55.7670   44.7555
    349      1   51.3310   52.6770    8.9205
    350      1   63.3210   57.6830   11.7785
    351      1   36.6770   41.4770   22.1125
    352      1   36.6570   39.6360   24.0660
    353      1   63.3500   54.0830   10.9375
    354      1   36.6320   38.1280   35.1120
    355      1   36.6320   45.2550   36.2005
    356      1   63.3790   39.0380   49.9620
    357      1   36.6040   61.3590   24.3735
    358      1   36.6040   63.1580   17.3120
    359      1   36.5820   51.0860   33.2525
    360      1   63.4930   61.7300    9.9765
    361      1   63.4320   53.8270   43.3845
    362      1   63.4440   37.2690   41.0650
    363      1   63.4450   38.2530   48.7050
    364      1   36.5540   48.8390   16.6090
    365      1   63.4780   42.8490   38.1935
    366      1   36.5060   62.8900   20.9320
    367      1   63.4970   60.5210   10.9200
    368      1   36.4820   55.0880   30.4670
    369      1   63.5260   51.6740   41.9685
    370      1   36.4690   55.6960   13.4660
    371      1   63.5410   39.2710   39.0530
    372      1   36.4460   53.1960   31.8095
    373      1   36.4420   57.1170   13.2790
    374      1   63.5720   36.8590   43.5745
    375      1   63.5810   43.6350    4.4335
    376      1   63.5850   58.8110   47.5675
    377      1   63.5890   49.8840    8.7360
    378      1   63.6010   62.2410    2.2760
    379      1   36.3460   37.6710   27.6035
    380      1   36.3040   46.7540   18.0885
    381      1   63.7090   61.6210    1.1865
    382      1   63.7120   40.7370    1.6435
    383      1   36.2530   59.3810   26.5380
    384      1   63.7520   47.2660   39.6350
    385      1   48.6240   54.4390   22.0210
    386      1   36.2160   47.5620   34.9975
    387      1   63.7920   49.4570   40.7930
    388      1   36.2040   42.3460   36.2890
    389      1   36.1760   40.8930   36.0335
    390      1   63.8420   41.6130   38.6225
    391      1   36.1580   44.6580   19.6915
    392      1   63.8720   55.3970   10.9490
    393      1   36.1190   56.0010   29.5915
    394      1   36.1060   58.2880   27.5630
    395      1   36.1050   62.7520   19.6250
    396      1   63.8960   44.9660   38.9820
    397      1   63.9050   56.6630   45.7835
    398      1   36.0890   39.0650   25.3955
    399      1   36.0540   42.6230   21.4250
    400      1   36.0110   40.7540   23.2870
    401      1   36.0070   37.4880   32.2345
    402      1   64.0100   51.0720    9.1290
    403      1   35.9890   49.7710   33.7175
    404      1   35.9800   62.0420   22.0920
    405      1   64.0360   62.5850    4.8660
    406      1   35.9520   37.3930   30.6590
    407      1   64.0550   53.1860   10.0765
    408      1   51.4080   67.0060   17.5735
    409      1   64.0860   54.7800   44.3775
    410      1   64.0990   41.7650    2.4070
    411      1   48.5900   44.1820   26.7840
    412      1   64.1450   52.6570   42.9260
    413      1   35.8460   51.9400   32.3430
    414      1   35.8440   53.5860   14.6115
    415      1   35.8440   61.3670   15.6965
    416      1   35.8410   59.2900   14.2600
    417      1   48.6470   36.4340   45.5615
    418      1   64.1650   58.0920   10.8465
    419      1   64.2350   61.6380    8.5495
    420      1   64.2030   47.9670    7.2460
    421      1   64.2130   59.4860   10.3680
    422      1   35.7870   54.0520   30.8855
    423      1   64.2230   37.8720   46.3210
    424      1   48.5760   61.4610    3.6920
    425      1   35.7550   38.9670   34.2920
    426      1   51.4260   46.1210   33.8345
    427      1   35.7340   61.9620   16.9885
    428      1   64.2900   43.7590   39.0930
    429      1   64.3040   38.3790   41.3985
    430      1   64.3090   40.0510    0.3785
    431      1   35.6770   54.9140   14.4055
    432      1   64.3370   50.3940   41.6495
    433      1   64.3530   61.9830    3.5140
    434      1   51.4360   38.8930   48.2040
    435      1   64.3600   39.3720   40.3610
    436      1   64.3780   38.5300   47.7195
    437      1   35.6200   57.8690   14.2005
    438      1   64.3990   60.2520   49.9490
    439      1   64.4160   48.1990   40.5315
    440      1   48.3960   33.7770   29.9920
    441      1   64.4530   45.9010   39.7305
    442      1   35.5210   44.7150   35.3625
    443      1   64.5010   46.0570    5.7965
    444      1   48.5490   52.7010   14.5585
    445      1   64.5340   37.9600   43.8335
    446      1   35.4640   51.4070   15.8220
    447      1   35.4640   40.3170   34.7945
    448      1   35.4610   60.3870   24.4340
    449      1   48.5460   58.9120    3.8070
    450      1   64.5650   61.9900    6.0875
    451      1   64.5970   60.7580    1.0140
    452      1   35.3950   38.6120   32.9165
    453      1   48.5380   68.7690   11.9255
    454      1   64.6310   49.2260    7.7555
    455      1   48.5360   57.8200   23.5445
    456      1   35.3440   43.2250   35.3290
    457      1   35.3020   59.9990   15.5105
    458      1   35.2850   38.4570   28.2580
    459      1   48.5250   31.1830   36.2605
    460      1   35.2320   59.4210   25.5210
    461      1   64.7830   41.7150   39.7970
    462      1   35.2170   49.2740   17.1185
    463      1   35.1460   38.3640   29.8225
    464      1   35.1190   61.6450   19.4225
    465      1   64.8820   44.1750    4.0800
    466      1   48.5120   46.1980   28.2485
    467      1   64.9010   58.4230   48.2430
    468      1   64.9010   38.4170   45.2230
    469      1   51.4900   31.4590   40.3495
    470      1   64.9080   38.7220   42.7285
    471      1   35.0380   52.8190   15.5770
    472      1   35.0340   47.1960   18.5215
    473      1   51.4980   36.0010   29.6090
    474      1   35.0190   47.0520   34.2430
    475      1   64.9950   55.9510    9.9075
    476      1   35.0040   61.2660   18.1230
    477      1   51.5010   53.0140    4.9760
    478      1   65.0100   59.4660    9.0975
    479      1   65.0180   57.2210    9.8485
    480      1   34.9810   61.0760   21.9180
    481      1   65.0320   40.7030   40.6535
    482      1   65.0360   60.4090    8.2230
    483      1   34.9530   56.0220   28.7660
    484      1   34.9380   39.7480   26.0490
    485      1   65.0630   47.2360    6.2125
    486      1   34.8880   57.1800   27.6570
    487      1   65.1270   43.0480   40.0690
    488      1   34.8680   45.0820   20.1715
    489      1   34.8160   41.3460   23.8200
    490      1   48.4790   61.8140   23.0190
    491      1   34.7910   43.0590   21.9865
    492      1   65.2230   59.1120   49.4690
    493      1   51.5250   54.5780    2.3085
    494      1   65.2580   56.3360   46.4930
    495      1   34.7340   49.3020   33.0590
    496      1   65.2800   53.1850    9.0700
    497      1   34.7180   57.1530   15.2955
    498      1   34.7120   45.6180   34.3385
    499      1   34.7120   50.6240   16.8060
    500      1   65.2900   45.4300    4.7530
    501      1   65.3010   51.8070    8.5265
    502      1   34.6870   41.2340   33.9365
    503      1   65.3140   40.3890   49.4400
    504      1   48.4680   47.2480   30.8520
    505      1   65.3180   39.6530   48.0385
    506      1   65.3270   60.8410    3.3310
    507      1   34.6610   55.7230   15.3225
    508      1   65.3470   42.2950    1.8080
    509      1   34.6530   60.2320   23.1620
    510      1   48.4650   55.4180   23.0510
    511      1   34.6180   39.5280   32.0475
    512      1   34.5890   53.7100   30.3070
    513      1   65.4110   54.3810   45.0050
    514      1   34.5730   39.4910   27.5445
    515      1   51.5430   54.1660   16.4430
    516      1   51.5430   41.3890   28.9615
    517      1   34.5630   51.4630   31.7460
    518      1   65.4480   60.7530    5.9450
    519      1   65.4590   52.3800   43.6375
    520      1   34.5400   42.6880   34.2150
    521      1   65.4640   60.2350    1.9200
    522      1   48.4530   67.1960    7.5715
    523      1   34.5210   60.8170   20.5555
    524      1   34.5030   59.2740   16.5860
    525      1   34.5010   48.5020   18.1210
    526      1   65.5120   58.0730    8.8935
    527      1   65.5130   47.3430   41.2020
    528      1   65.5190   50.1200   42.3540
    529      1   65.5520   45.8360   40.7800
    530      1   34.4250   39.3740   30.5290
    531      1   65.6510   43.5160    2.7185
    532      1   34.3470   46.4000   19.6240
    533      1   65.6830   39.9720   42.9990
    534      1   34.3160   59.9450   17.9065
    535      1   65.6890   59.9600    6.9515
    536      1   34.3110   40.9110   25.2525
    537      1   51.5720   31.9000   41.8070
    538      1   34.2790   47.8970   33.2205
    539      1   65.7500   57.0890   47.7355
    540      1   65.7520   40.9590   41.9615
    541      1   34.2360   44.3180   21.3890
    542      1   34.2190   42.5050   23.2075
    543      1   65.7870   39.6360   45.4670
    544      1   34.2020   40.8000   32.5650
    545      1   34.1880   58.3910   25.4395
    546      1   48.4170   67.9210    8.9075
    547      1   65.8290   49.8480    7.1245
    548      1   34.1400   57.8490   16.4305
    549      1   34.1190   54.7660   29.0630
    550      1   65.8940   60.2060    4.5400
    551      1   65.8980   55.4190    8.6935
    552      1   51.5920   55.3950   18.5785
    553      1   51.5920   61.0560   21.0175
    554      1   65.9280   43.4430   41.2010
    555      1   34.0440   50.1400   31.9975
    556      1   34.0240   53.4950   16.4295
    557      1   65.9770   55.0960   46.1410
    558      1   33.9900   57.2440   26.5510
    559      1   66.0200   51.1230   43.3845
    560      1   33.9660   52.3770   30.6345
    561      1   66.0480   40.2130   46.8840
    562      1   66.0510   54.1020    8.3585
    563      1   66.0790   51.2420    7.5030
    564      1   66.0830   53.2060   44.7720
    565      1   33.9020   54.9670   16.3720
    566      1   66.1720   41.5300   49.5885
    567      1   33.8200   43.6030   33.2320
    568      1   33.8170   45.0440   33.3220
    569      1   66.1950   40.4280   44.3480
    570      1   66.1960   44.7590   41.5015
    571      1   66.2070   57.6300    7.7520
    572      1   33.7770   59.6630   20.3535
    573      1   66.2250   42.2130    0.5215
    574      1   48.3750   39.9190   26.2305
    575      1   66.2520   58.4370    0.2880
    576      1   48.3730   37.7620   45.8060
    577      1   66.2670   47.9010    5.5690
    578      1   33.7320   40.4610   28.2080
    579      1   33.7310   59.1510   22.9140
    580      1   33.7220   40.4370   29.6280
    581      1   66.2950   59.0540    1.6740
    582      1   66.3030   42.3670   42.2370
    583      1   33.6860   59.1700   19.0040
    584      1   66.3190   47.6550   42.2515
    585      1   66.3290   48.9690   42.6890
    586      1   66.3580   58.5740    6.6840
    587      1   33.6220   51.2340   17.6230
    588      1   33.5320   41.7680   31.6825
    589      1   33.4940   58.2770   24.1045
    590      1   66.5130   45.9980    3.9670
    591      1   33.4240   57.1010   17.5730
    592      1   48.3420   42.1490   45.4205
    593      1   66.6050   49.2550    5.9715
    594      1   33.3840   49.0480   18.9345
    595      1   66.6170   56.2460    7.4925
    596      1   66.6300   58.9400    4.2775
    597      1   33.3630   41.7840   25.9535
    598      1   33.3590   52.6940   17.4915
    599      1   33.3300   46.8490   20.3720
    600      1   66.6800   44.1780    2.0695
    601      1   33.3170   47.3650   32.2410
    602      1   33.3150   58.8410   21.4685
    603      1   33.2980   43.1170   32.0715
    604      1   33.2570   44.9190   22.0445
    605      1   66.7480   56.5650   48.6255
    606      1   33.2460   41.5590   30.2640
    607      1   33.2430   55.6500   17.4875
    608      1   66.8360   41.5370   47.1250
    609      1   33.1610   45.9450   32.2470
    610      1   33.1570   57.7510   18.8260
    611      1   33.0730   41.7020   27.4570
    612      1   66.8540   58.1000    5.4155
    613      1   33.1420   56.2120   26.3745
    614      1   66.8670   41.7780   44.6420
    615      1   33.1280   43.4190   24.0010
    616      1   33.1250   54.2700   28.2470
    617      1   66.8950   58.3930    2.8225
    618      1   66.9060   42.7300   43.5690
    619      1   51.6910   58.5480   20.6950
    620      1   66.9280   57.2240   49.9525
    621      1   66.9280   47.2900    4.3670
    622      1   33.0380   49.5920   31.0880
    623      1   66.9640   42.1170   48.4280
    624      1   66.9690   53.5980    6.9795
    625      1   66.9750   52.1150    6.6675
    626      1   33.0090   50.4300   18.7490
    627      1   66.9940   43.4790    0.7465
    628      1   67.0030   45.1160   42.8410
    629      1   67.0170   50.6240   44.2725
    630      1   32.9600   51.9000   29.7590
    631      1   67.0470   45.4470    2.7435
    632      1   67.0630   54.5720   47.1055
    633      1   32.9000   48.1910   20.0830
    634      1   32.8720   46.1320   21.5745
    635      1   67.1300   52.6100   45.6350
    636      1   51.7160   58.4690    0.9985
    637      1   67.1650   46.5050   43.1690
    638      1   32.7930   54.9140   27.1040
    639      1   67.2100   49.2660   43.9170
    640      1   32.7770   43.1330   25.3150
    641      1   67.2260   55.8250    6.2765
    642      1   32.7660   48.2210   31.1700
    643      1   67.2470   42.3090   46.0020
    644      1   32.7300   43.8870   31.0010
    645      1   32.7270   57.0870   23.8770
    646      1   32.7210   44.5740   23.4355
    647      1   51.7290   42.6920   48.7955