 Lammps data file for helix_gr
 
        2108 atoms
           1 atom types
 
  -50.00000       150.0000     xlo xhi
  -50.00000       150.0000     ylo yhi
           0   50.00000     zlo zhi
 
  Atoms
 
      1      1   50.0040   28.2250   30.6955
      2      1   50.0140   61.6890    5.7130
      3      1   49.9590   40.4770   40.7235
      4      1   50.0730   73.5910   17.1605
      5      1   50.0800   70.9140   19.9160
      6      1   50.1100   40.7020   35.2130
      7      1   49.8810   59.0440   13.1240
      8      1   49.8560   36.2080   45.5965
      9      1   50.1540   59.0540   11.6550
     10      1   50.2800   73.6600    7.9095
     11      1   50.1670   32.9670   28.8235
     12      1   49.8280   35.4460   28.9380
     13      1   50.1780   30.4980   29.3785
     14      1   49.8160   60.8090    6.8320
     15      1   49.8010   71.3460    5.4210
     16      1   49.7910   26.0130   41.3965
     17      1   50.2100   25.2210   39.0580
     18      1   49.7810   25.1050   37.5955
     19      1   50.2200   39.3980   43.1215
     20      1   50.2310   62.4940   19.8075
     21      1   50.2730   37.5720   45.0805
     22      1   50.3100   25.4690   35.0620
     23      1   50.3210   66.5540    3.6015
     24      1   50.3270   29.4210   45.2935
     25      1   49.6610   65.9340   21.3945
     26      1   49.6490   72.0990   19.1610
     27      1   50.3570   74.5720   14.7970
     28      1   50.3970   37.8250   30.5485
     29      1   50.4390   40.2200   33.8880
     30      1   49.5580   26.5200   32.4885
     31      1   49.5410   64.4710   21.1920
     32      1   49.5320   38.2750   44.0140
     33      1   50.4700   74.8890   12.3465
     34      1   50.4780   30.7790   45.9505
     35      1   49.5140   72.3260    6.3935
     36      1   50.4990   33.8240   46.4940
     37      1   50.5090   74.5160    9.8505
     38      1   49.4880   31.6870   28.7095
     39      1   49.4770   39.5890   31.8490
     40      1   50.5420   63.9380    3.9415
     41      1   50.5420   63.7860   20.3795
     42      1   49.4550   39.8320   41.9120
     43      1   50.5650   69.0490    3.9145
     44      1   50.5650   72.7030   18.1965
     45      1   49.4150   59.6420    9.3620
     46      1   50.5890   59.6300   15.6140
     47      1   50.5950   38.7930   31.5945
     48      1   49.4000   68.8150   21.1895
     49      1   49.3960   29.2660   29.7125
     50      1   50.6230   60.8440   17.9040
     51      1   49.3760   34.2040   28.4685
     52      1   49.3670   40.2320   33.0180
     53      1   49.3610   27.4790   43.3700
     54      1   49.3480   25.5380   40.0535
     55      1   49.3310   40.9180   38.1590
     56      1   50.4960   73.1650    7.0285
     57      1   50.6840   68.1780   20.8005
     58      1   49.3130   63.9940    4.6120
     59      1   50.7080   25.1980   36.5235
     60      1   49.2920   60.3360   18.1680
     61      1   50.7170   40.9830   37.7660
     62      1   50.7310   35.3130   46.3815
     63      1   50.7590   27.4020   43.7765
     64      1   49.2360   33.1860   45.8920
     65      1   49.2290   69.0580    4.4755
     66      1   50.7800   59.4520    8.6640
     67      1   50.7900   66.7160   20.8745
     68      1   49.1940   31.7610   45.7415
     69      1   49.1740   37.7630   29.6830
     70      1   49.1550   59.2680   10.7545
     71      1   49.1400   59.3250   15.9220
     72      1   49.1260   74.2990    9.6675
     73      1   49.1210   27.2590   31.3545
     74      1   49.0990   70.1580   20.7355
     75      1   50.9360   74.0310   16.0105
     76      1   50.9390   26.5600   32.9160
     77      1   50.9810   59.3070   14.1780
     78      1   48.9780   73.7830    8.5520
     79      1   49.0040   61.8450   20.1410
     80      1   51.0010   65.2440    3.3630
     81      1   59.9290   58.6180   47.7365
     82      1   51.0020   59.9080    7.3125
     83      1   39.9690   72.7600   15.2095
     84      1   39.9650   70.4110   21.9960
     85      1   39.9580   44.9600   35.0230
     86      1   39.9530   46.5670   33.1335
     87      1   39.9480   70.1630   10.0825
     88      1   60.0560   51.3650   46.3240
     89      1   48.9940   66.5850    4.2270
     90      1   60.0630   27.8890   37.6480
     91      1   39.9350   43.2440   36.8680
     92      1   39.9190   67.5600   24.4950
     93      1   39.9110   41.3660   38.5540
     94      1   60.1030   65.0000   49.1670
     95      1   39.8860   52.5420   28.2855
     96      1   39.8790   56.5890   13.2825
     97      1   60.1210   55.4410   10.5355
     98      1   39.8680   61.1810   26.9375
     99      1   60.1410   43.4800   38.3280
    100      1   60.1530   49.3220   44.6825
    101      1   60.1640   27.3100   40.1845
    102      1   39.8340   48.3340   31.3150
    103      1   39.8280   38.8040   23.0335
    104      1   39.8270   72.5440   17.5455
    105      1   39.7880   27.3010   33.9090
    106      1   60.2220   52.8910   46.6430
    107      1   39.7710   71.1090   11.2010
    108      1   39.7670   55.5540   14.2890
    109      1   48.9760   62.8640    5.4185
    110      1   60.2480   32.3540   33.9300
    111      1   39.7270   50.3240   29.7510
    112      1   60.2740   48.3930    3.9605
    113      1   60.2770   70.0870   14.7950
    114      1   39.7140   72.4120   13.8525
    115      1   60.2980   45.2080   40.0825
    116      1   60.3020   46.9320    3.4160
    117      1   39.6620   48.7180   20.7555
    118      1   39.6580   32.6380   25.3570
    119      1   51.0380   67.8390    3.3805
    120      1   60.4130   28.7640   36.5395
    121      1   60.3210   61.1770   47.9245
    122      1   39.5860   62.6830   26.7120
    123      1   60.4240   53.4110    8.5070
    124      1   60.4290   46.9120   41.8430
    125      1   60.4320   27.9450   43.9830
    126      1   39.5520   29.5230   39.2830
    127      1   39.5500   27.5100   35.3440
    128      1   48.9540   29.4940   44.7855
    129      1   60.4930   67.0910    0.1660
    130      1   39.4990   47.3650   21.1245
    131      1   60.5030   68.8540   15.4365
    132      1   60.5110   52.3600    7.5035
    133      1   60.5130   39.9620    2.3725
    134      1   60.5170   31.0230   34.6490
    135      1   39.4660   68.6710   23.6735
    136      1   60.5430   41.4800    2.6745
    137      1   39.4510   52.4930   17.3645
    138      1   39.4490   67.9070    9.2095
    139      1   39.4430   50.6070   19.0765
    140      1   60.5640   71.7510   12.4200
    141      1   60.5710   50.7300   45.0630
    142      1   60.5760   48.7000   43.4455
    143      1   39.4160   58.6790   27.6680
    144      1   39.4040   28.6400   38.0605
    145      1   39.3900   35.0660   24.0185
    146      1   60.6150   72.2660   10.9775
    147      1   60.6380   63.7970   48.5495
    148      1   60.6630   36.9150    1.7215
    149      1   39.3340   40.0660   22.5260
    150      1   39.3330   53.3730   16.2425
    151      1   39.3210   44.4720   21.7135
    152      1   48.9300   25.4630   34.7135
    153      1   39.2980   62.1760    9.5055
    154      1   39.2870   65.2880    8.8935
    155      1   39.2830   36.8540   40.8160
    156      1   60.6690   32.1090   49.2025
    157      1   60.7350   27.5530   41.4855
    158      1   39.2590   42.9660   21.9425
    159      1   60.7580   34.8050   33.9130
    160      1   39.2360   56.0050   28.2720
    161      1   39.2320   27.9080   31.5035
    162      1   39.2300   71.6560   19.7060
    163      1   48.9230   40.6290   39.5480
    164      1   60.8040   27.8790   38.9000
    165      1   39.1910   37.5640   23.0425
    166      1   60.8120   49.9770    5.7890
    167      1   60.8250   55.9850   46.6630
    168      1   60.8290   66.0800   16.0255
    169      1   39.1590   34.3610   41.0260
    170      1   60.8520   60.4750   14.7065
    171      1   60.8520   61.7820   15.3030
    172      1   39.1300   60.7280   10.1775
    173      1   60.8770   64.6200   16.0010
    174      1   60.5560   31.0350   48.4120
    175      1   48.9120   74.6790   14.7180
    176      1   60.8920   44.4050    3.5100
    177      1   39.0890   31.7990   40.4440
    178      1   39.0810   49.2940   19.5440
    179      1   60.9310   69.1800    1.8480
    180      1   39.0650   65.4590   25.8125
    181      1   39.0630   53.3990   29.1795
    182      1   39.0360   69.0900   10.0335
    183      1   60.9690   48.6710    5.1465
    184      1   60.9780   65.9600   49.4395
    185      1   48.9020   74.8160   12.0870
    186      1   38.9990   72.3390   16.1985
    187      1   61.0110   72.3230    8.5735
    188      1   61.0160   45.8440    4.0230
    189      1   61.1430   58.6820   46.9770
    190      1   51.1030   40.8000   36.2335
    191      1   38.9680   60.2180   27.6260
    192      1   38.9660   72.0090   18.4045
    193      1   38.9290   66.7150   25.1055
    194      1   61.1040   53.5800   45.7050
    195      1   61.1100   58.0330   13.1385
    196      1   38.8870   28.9910   29.2575
    197      1   48.8880   26.7050   42.2195
    198      1   38.8790   58.2170   11.7290
    199      1   61.1230   37.2440   34.4510
    200      1   61.1410   33.3760   34.2355
    201      1   38.8520   51.3140   17.7735
    202      1   38.8220   27.8040   32.9295
    203      1   61.1800   71.8260    6.1400
    204      1   38.8180   66.7130    9.2800
    205      1   61.1970   70.7850    3.8915
    206      1   38.7930   51.1110   30.5740
    207      1   61.2180   56.8770   12.2580
    208      1   38.7620   49.0280   32.0635
    209      1   61.2470   29.4000   46.3570
    210      1   38.7500   57.0690   12.5880
    211      1   48.8740   36.6420   28.8130
    212      1   38.7350   57.6480   28.3545
    213      1   38.7040   47.1410   33.7200
    214      1   61.5020   35.6340    1.3605
    215      1   38.6870   30.6880   39.5270
    216      1   38.6820   70.9380   12.1195
    217      1   51.1320   61.8900   18.7725
    218      1   38.6680   46.5570   20.3995
    219      1   38.6560   54.9610   29.0660
    220      1   38.6540   35.6140   40.7550
    221      1   38.6320   30.5190   27.2220
    222      1   61.3680   54.6820   10.4190
    223      1   61.3710   39.4880   35.3845
    224      1   61.3800   68.0080    0.8495
    225      1   61.4590   57.3360   46.5190
    226      1   61.3890   70.2280   13.7065
    227      1   38.6060   71.5810   13.4125
    228      1   38.5990   45.3430   35.4075
    229      1   38.5450   70.3840   21.5830
    230      1   61.4590   53.6100    9.5180
    231      1   38.5410   43.3740   37.0810
    232      1   61.4740   54.9550   45.8185
    233      1   61.4960   71.9920    9.8920
    234      1   38.4940   54.7750   14.4310
    235      1   61.5070   41.6100   36.6370
    236      1   38.4760   45.0870   20.7250
    237      1   61.5360   51.4330   44.2475
    238      1   38.4480   33.0930   40.4450
    239      1   61.5590   29.6310   36.6470
    240      1   61.5610   70.9110   12.6050
    241      1   38.4210   41.2900   38.5640
    242      1   61.5830   43.6760   38.1270
    243      1   38.4160   64.6580   26.3030
    244      1   38.4010   63.2390   26.9515
    245      1   61.6030   30.7410   35.6795
    246      1   61.6110   51.3840    7.7235
    247      1   38.3700   28.2970   35.8030
    248      1   38.3690   52.5630   30.2705
    249      1   61.6330   30.3240   47.4740
    250      1   38.3530   28.5600   30.5700
    251      1   61.6520   41.9860    3.5230
    252      1   61.6530   45.5360   39.6440
    253      1   61.6590   39.1250    2.7595
    254      1   61.6640   49.3530   42.7555
    255      1   61.6640   35.8800   34.4285
    256      1   38.3260   28.9010   37.1480
    257      1   61.6750   47.4080   41.2240
    258      1   61.6860   37.8170    2.3510
    259      1   51.1690   71.3190    4.9095
    260      1   38.3100   53.4940   15.4245
    261      1   51.1690   35.5430   29.6900
    262      1   61.7070   50.1680    6.9095
    263      1   38.2930   64.4100    9.4075
    264      1   38.2760   32.4980   25.4520
    265      1   61.7320   68.2490   14.8410
    266      1   61.7470   43.4110    3.9720
    267      1   61.7500   28.4650   44.0360
    268      1   38.2260   42.1130   21.3510
    269      1   62.0750   59.9590   46.9200
    270      1   61.7920   69.8940    2.8540
    271      1   61.8040   71.8390    7.4560
    272      1   61.7140   61.0870   47.2725
    273      1   38.1860   50.3600   31.6690
    274      1   38.1830   40.5670   21.7495
    275      1   38.1610   70.9580   20.3825
    276      1   38.1350   63.1070    9.6610
    277      1   51.1880   74.7520   13.5965
    278      1   61.8830   71.1420    5.0535
    279      1   38.1090   48.6270   18.8685
    280      1   38.1070   48.3410   33.1710
    281      1   61.9020   47.5980    5.6080
    282      1   61.9030   52.7560   44.5710
    283      1   61.9180   66.9080   15.1915
    284      1   61.9220   46.2310    5.0290
    285      1   51.1930   61.6100    4.9345
    286      1   38.0520   34.8340   23.9160
    287      1   38.0430   29.8150   28.3580
    288      1   61.9610   63.6440   48.1520
    289      1   61.9760   63.9630   15.4075
    290      1   61.9900   38.2790   35.0745
    291      1   51.2020   74.2120    8.7440
    292      1   37.9650   68.7590   23.3775
    293      1   62.0380   28.6590   38.9605
    294      1   37.9550   46.4510   34.7780
    295      1   48.7950   41.0240   35.6230
    296      1   37.9440   71.7900   16.2265
    297      1   62.0580   62.5520   15.1385
    298      1   62.0630   28.2230   41.4805
    299      1   48.7900   70.2390    5.1445
    300      1   37.8600   47.2430   19.3545
    301      1   37.8510   44.5000   36.3500
    302      1   62.1840   29.1390   45.3030
    303      1   62.2050   50.6770   43.1770
    304      1   51.2210   74.8090   11.1315
    305      1   62.2180   40.4930   36.0610
    306      1   37.7690   68.9730   11.0140
    307      1   37.7530   31.4720   26.4260
    308      1   62.2480   60.0300   14.1565
    309      1   37.7480   60.3020   10.7205
    310      1   37.7470   42.3570   37.8575
    311      1   62.6340   57.7890   45.9835
    312      1   37.7210   71.5790   17.6565
    313      1   62.2860   48.6080   41.7405
    314      1   51.2300   28.3680   44.8415
    315      1   62.3040   42.6890   37.3545
    316      1   37.6920   37.3950   22.6545
    317      1   37.6680   58.9590   11.3875
    318      1   37.6590   50.7130   17.1650
    319      1   62.3530   44.7130   38.7610
    320      1   62.3580   46.6490   40.2295
    321      1   62.3660   58.7490   13.4950
    322      1   37.6250   66.7130   10.0410
    323      1   62.3850   65.7690   49.2495
    324      1   62.3900   69.0670   13.7645
    325      1   37.6020   28.4160   33.4200
    326      1   37.6860   40.0590   39.1110
    327      1   37.5920   69.8740   11.9815
    328      1   37.5920   60.5550   28.1350
    329      1   37.5660   30.8630   38.6705
    330      1   51.2440   25.9800   41.7155
    331      1   62.4430   29.5360   37.8165
    332      1   62.4770   33.0970   35.1790
    333      1   37.5150   69.5670   22.2750
    334      1   37.5130   58.0400   28.9815
    335      1   37.5110   66.9330   24.9415
    336      1   62.5150   56.2500   11.9460
    337      1   37.4770   55.5110   29.8420
    338      1   62.5390   55.0950   11.1415
    339      1   37.4560   33.5940   24.6825
    340      1   37.4540   56.4790   12.8990
    341      1   62.5470   62.3160   47.4570
    342      1   37.4230   71.0140   14.1100
    343      1   62.5830   28.5980   42.8065
    344      1   37.4130   44.3050   20.1755
    345      1   37.3890   62.8250   27.2980
    346      1   37.3880   28.7000   34.8585
    347      1   37.3520   29.9600   37.5140
    348      1   37.3440   35.7410   40.0925
    349      1   62.6650   52.8320    9.5155
    350      1   62.6700   31.7940   35.9040
    351      1   62.6700   71.2040   10.1370
    352      1   37.3100   55.2200   13.7355
    353      1   37.2890   33.1960   39.6880
    354      1   37.2780   49.3380   17.7915
    355      1   62.7260   28.7600   40.2405
    356      1   62.7280   35.8810    1.7220
    357      1   62.7290   55.4320   45.0025
    358      1   62.7310   51.6570    8.7245
    359      1   37.2440   53.0990   30.9685
    360      1   63.0470   59.3260   46.2700
    361      1   37.2280   65.3540   10.0520
    362      1   37.2250   42.8380   20.5725
    363      1   62.7860   70.6380   11.4075
    364      1   37.2110   35.9660   23.2350
    365      1   37.1730   64.9560   26.2390
    366      1   62.8320   41.0150    3.8220
    367      1   62.8340   64.6560   48.5795
    368      1   62.8580   67.7570    0.8640
    369      1   62.8640   37.1270    2.3440
    370      1   62.8680   49.1790    7.2065
    371      1   62.8700   39.6730    3.3610
    372      1   62.8910   43.8220    4.8205
    373      1   62.9080   47.9140    6.5475
    374      1   37.0620   52.6430   15.4955
    375      1   62.9410   45.2030    5.3640
    376      1   37.0580   71.1270   15.4170
    377      1   62.9650   30.8440   47.6140
    378      1   62.9790   64.7960   14.8825
    379      1   37.0190   29.0310   31.0365
    380      1   62.9950   66.2960   14.6160
    381      1   36.9990   67.8650   24.0355
    382      1   51.3000   25.9580   34.1570
    383      1   36.9890   67.7890   10.9515
    384      1   63.3030   56.8160   45.3070
    385      1   36.9710   37.1560   39.7620
    386      1   36.9660   50.9310   32.2625
    387      1   63.0370   35.5190   35.1420
    388      1   36.9410   39.8650   21.4930
    389      1   51.3120   40.8910   40.3925
    390      1   63.1360   53.2310   43.8665
    391      1   63.1370   71.1350    7.6685
    392      1   36.8390   70.6400   19.7325
    393      1   36.8350   56.9470   29.6755
    394      1   63.1710   69.4660    2.9545
    395      1   36.8180   59.4080   28.8040
    396      1   36.8150   51.3960   16.2195
    397      1   36.8100   32.0770   38.8300
    398      1   36.8040   62.5640   10.3530
    399      1   36.7750   61.7630   27.8820
    400      1   36.7640   48.8050   33.6605
    401      1   36.7580   54.4850   30.6540
    402      1   63.2490   70.5890    5.2330
    403      1   63.2630   31.8300   48.6565
    404      1   63.2740   62.0410   14.5080
    405      1   36.7150   69.9260   13.1855
    406      1   36.7030   46.5870   18.8390
    407      1   36.6900   34.5900   39.6060
    408      1   36.6880   30.1110   28.7220
    409      1   36.6770   28.9900   32.4605
    410      1   36.6620   70.9080   18.3080
    411      1   36.6490   38.4430   22.0055
    412      1   63.3790   66.6490   49.9900
    413      1   63.4060   51.2410   42.6930
    414      1   36.5850   61.2070   10.7405
    415      1   63.4280   38.0190   35.5660
    416      1   36.5690   66.0090   25.5325
    417      1   63.4640   60.8270   14.1220
    418      1   36.5350   46.7640   35.0820
    419      1   63.4660   34.1650   35.5705
    420      1   63.5180   70.8310    9.0305
    421      1   63.5200   29.7950   45.4000
    422      1   63.5300   68.7670   12.8550
    423      1   48.6460   73.8540   17.0880
    424      1   36.4480   52.2180   31.8660
    425      1   36.4480   45.1200   19.3350
    426      1   63.5550   30.4790   37.9520
    427      1   36.4450   63.9090   26.8605
    428      1   63.5930   54.5310   44.1850
    429      1   63.6110   49.0460   41.3235
    430      1   63.6170   33.9700    0.4855
    431      1   36.3810   44.6640   36.4550
    432      1   36.3590   30.2340   36.5795
    433      1   36.3510   29.5780   35.2690
    434      1   36.3350   31.6460   26.7210
    435      1   63.6840   40.3960   36.3620
    436      1   51.3690   60.3410   16.6755
    437      1   36.2680   58.5010   11.8655
    438      1   63.7380   31.6260   37.0075
    439      1   63.7510   46.9160   39.9395
    440      1   63.7540   69.6550   11.5995
    441      1   51.3770   28.2980   31.1635
    442      1   63.7780   58.2450   13.0110
    443      1   63.7870   44.8290   38.6285
    444      1   63.7880   68.5000    1.9630
    445      1   36.2060   42.3740   37.7155
    446      1   36.1990   50.0630   33.1465
    447      1   36.1990   29.7570   30.0880
    448      1   63.8060   35.1470    1.2990
    449      1   63.8150   42.6300   37.4070
    450      1   36.1820   57.1700   12.5180
    451      1   63.8190   56.9010   12.3425
    452      1   63.8340   54.4280   10.9135
    453      1   51.3840   62.7290    3.9695
    454      1   64.1320   59.7100   46.1400
    455      1   63.8520   29.3500   42.8850
    456      1   63.8700   53.2370   10.1885
    457      1   36.1240   69.3530   21.7550
    458      1   63.8790   70.5670    6.5315
    459      1   36.1150   39.9800   38.7100
    460      1   63.8870   62.1520   47.1805
    461      1   36.1100   33.4780   24.9860
    462      1   36.1090   65.0360   10.7260
    463      1   63.9150   30.5760   46.5940
    464      1   63.9160   29.6230   40.2805
    465      1   36.0770   48.6730   17.4855
    466      1   63.9340   36.6230   35.6560
    467      1   63.9420   69.8030    4.1715
    468      1   63.9630   50.8090    8.7270
    469      1   63.9700   52.4710   43.0590
    470      1   36.0050   42.1940   20.3065
    471      1   64.0050   49.5470    8.0225
    472      1   64.0170   66.5900   13.8115
    473      1   64.0300   46.9950    6.7260
    474      1   35.9600   54.5730   13.9800
    475      1   64.0440   42.8820    4.9730
    476      1   64.0450   45.6500    6.1220
    477      1   35.9410   47.9180   34.5135
    478      1   64.0800   41.5000    4.4235
    479      1   64.0830   64.2990   14.2370
    480      1   35.8960   53.2770   14.7460
    481      1   48.5890   59.5280   17.2470
    482      1   64.1210   37.6710    2.7455
    483      1   35.8600   30.9890   27.8815
    484      1   64.1520   38.9090    3.3535
    485      1   35.8440   63.5500   10.7745
    486      1   35.8320   69.8520   20.4130
    487      1   35.8240   67.4330   11.7745
    488      1   64.1890   50.3550   41.8545
    489      1   35.7980   70.3420   16.0330
    490      1   35.7780   37.4080   39.1275
    491      1   48.5780   35.5870   45.1470
    492      1   35.7640   40.7670   20.8285
    493      1   35.7630   32.3070   38.0035
    494      1   35.7510   47.3070   18.0465
    495      1   64.2530   64.4140   48.4710
    496      1   48.5740   60.7320   19.3695
    497      1   35.7380   35.7690   23.3520
    498      1   64.2760   39.1310   36.1770
    499      1   35.7090   45.8200   35.8165
    500      1   64.2960   62.9550   14.1310
    501      1   64.3160   67.5560   12.9830
    502      1   64.3400   30.4650   39.1360
    503      1   51.4350   70.3340   19.7080
    504      1   64.3540   29.8720   44.2115
    505      1   64.3720   57.3290   45.0350
    506      1   35.6240   70.3340   17.4945
    507      1   51.4390   36.8020   30.4310
    508      1   64.3920   48.1130   40.5170
    509      1   35.6000   69.1540   13.6765
    510      1   35.5540   67.7850   23.5710
    511      1   35.5310   43.5550   37.0440
    512      1   35.5260   31.3670   36.9090
    513      1   64.4800   45.9180   39.2215
    514      1   64.4840   41.4540   36.9910
    515      1   35.5120   32.5550   26.0505
    516      1   35.5080   34.7470   38.8110
    517      1   64.5220   29.8380   41.5995
    518      1   64.5280   43.7330   38.0470
    519      1   64.5410   32.4120   48.7615
    520      1   35.4400   57.2270   30.0800
    521      1   35.4370   29.8200   32.9105
    522      1   35.4220   50.7470   16.1155
    523      1   35.4000   41.2130   38.0610
    524      1   64.6050   69.9490    9.2515
    525      1   48.5390   25.9110   33.3815
    526      1   35.3710   60.7810   11.3405
    527      1   35.3410   66.0380   11.5385
    528      1   35.3370   54.8600   31.1060
    529      1   64.6650   60.9770   46.5430
    530      1   35.3300   59.5520   29.1070
    531      1   35.3240   30.1230   34.2805
    532      1   64.6820   33.8930   36.5835
    533      1   35.3040   38.7330   38.7210
    534      1   64.7250   66.2790   49.9710
    535      1   64.7250   69.3390   10.5495
    536      1   64.7280   60.3700   13.5185
    537      1   64.7490   33.4250   49.7360
    538      1   64.7490   63.2160   47.7605
    539      1   48.5240   58.9110   13.5545
    540      1   64.7600   32.6570   37.2955
    541      1   35.2330   34.5210   24.3365
    542      1   64.7930   65.3500   13.5800
    543      1   35.1970   61.7700   28.0520
    544      1   35.1890   44.4950   19.1065
    545      1   35.1600   38.0790   22.0155
    546      1   35.1570   65.9900   25.2425
    547      1   35.1340   59.4180   11.7985
    548      1   35.1290   68.4640   22.3930
    549      1   35.1280   68.0440   12.9760
    550      1   35.1190   52.6270   32.2070
    551      1   64.8910   58.6410   45.4965
    552      1   64.9240   59.0680   13.0690
    553      1   35.0640   49.4000   16.7550
    554      1   51.4940   70.2040    4.0720
    555      1   35.0590   33.5830   38.0660
    556      1   35.0480   69.4580   15.2170
    557      1   35.0400   63.9020   26.7960
    558      1   48.5030   66.6510   21.9695
    559      1   64.9950   54.9800   43.8370
    560      1   34.9880   30.3660   30.5035
    561      1   51.5010   58.9050   11.1410
    562      1   34.9690   36.1490   38.6625
    563      1   34.9350   43.0360   19.6815
    564      1   65.0660   69.8080    6.7585
    565      1   51.5070   38.1230   45.5510
    566      1   65.0980   55.0690   11.3035
    567      1   65.1080   56.3870   11.9285
    568      1   34.8470   56.7040   12.9325
    569      1   48.4840   60.9580    7.4740
    570      1   65.1600   31.2770   46.6615
    571      1   65.1630   67.9930    2.1320
    572      1   65.1790   65.1350   49.1155
    573      1   65.1800   35.7290    1.5065
    574      1   51.5200   39.8730   43.5555
    575      1   34.7690   55.3670   13.5575
    576      1   65.2360   44.7960    6.1280
    577      1   65.2420   52.5780    9.9870
    578      1   65.2460   69.1420    4.3845
    579      1   34.7440   50.4030   33.4065
    580      1   65.2700   51.3250    9.3170
    581      1   65.2710   36.3720   36.4795
    582      1   34.7280   36.8350   22.7815
    583      1   65.2850   43.4090    5.5230
    584      1   65.3100   47.4510    7.3450
    585      1   65.3250   48.7380    7.9830
    586      1   51.5330   32.9900   46.9675
    587      1   34.6610   56.1660   30.6990
    588      1   34.6540   66.8330   24.1870
    589      1   34.6530   69.3580   19.6645
    590      1   34.6520   63.1670   11.5060
    591      1   65.3580   37.0080    2.3305
    592      1   65.3650   40.7120    4.3175
    593      1   34.6320   58.4650   29.6890
    594      1   34.6230   69.5720   18.1705
    595      1   34.6220   31.6510   35.9770
    596      1   65.3790   52.8210   42.7555
    597      1   65.3940   31.4840   39.2585
    598      1   65.4000   39.4620    3.7085
    599      1   65.4110   69.4920    8.1160
    600      1   48.4590   28.5190   43.9265
    601      1   34.5670   30.4690   31.9020
    602      1   65.4470   67.3540   11.9230
    603      1   34.5260   60.7070   28.6075
    604      1   65.4840   62.6230   13.4235
    605      1   65.4880   32.1270   47.7865
    606      1   65.4890   56.3240   44.3335
    607      1   34.4930   53.8820   31.7625
    608      1   51.5540   31.3700   46.5740
    609      1   34.4590   48.1350   34.6370
    610      1   34.4460   31.4990   28.4180
    611      1   48.4440   65.3320    4.6590
    612      1   34.4360   46.7910   17.8960
    613      1   34.4280   31.0630   34.6590
    614      1   65.5790   30.7070   44.2660
    615      1   65.5800   66.8800    1.0140
    616      1   65.5890   34.9960   36.9785
    617      1   34.4060   62.8250   27.4035
    618      1   34.3990   61.7550   11.6850
    619      1   65.6190   30.7170   41.7195
    620      1   65.6200   50.6420   41.6340
    621      1   34.3730   40.2270   20.9110
    622      1   65.6300   32.5300   38.3625
    623      1   65.6330   68.2490   10.7455
    624      1   34.3570   64.9300   25.8845
    625      1   34.3390   65.5250   12.2190
    626      1   65.6760   38.9010   36.8005
    627      1   48.4320   25.1590   37.2185
    628      1   34.3190   32.7460   26.4820
    629      1   51.5720   33.0540   29.4785
    630      1   65.7260   61.2520   13.1965
    631      1   65.7410   69.1680    5.6730
    632      1   34.2520   45.9240   35.7710
    633      1   65.7490   65.0190   12.8835
    634      1   65.7870   48.3060   40.4220
    635      1   34.1820   51.6790   32.8640
    636      1   65.8510   68.2980    3.3370
    637      1   65.8640   41.3130   37.3860
    638      1   51.5870   30.6140   29.9340
    639      1   34.1290   45.4460   18.4605
    640      1   65.8970   46.0270   39.2900
    641      1   34.0660   43.6070   36.7810
    642      1   34.0630   31.2290   29.6745
    643      1   34.0600   38.9620   21.5850
    644      1   65.9470   54.0300   43.2150
    645      1   65.9490   43.6360   38.2390
    646      1   48.4030   41.0570   37.0365
    647      1   65.9890   31.3290   45.5215