 Lammps data file for helix_gr
 
        2406 atoms
           1 atom types
 
  -50.00000       150.0000     xlo xhi
  -50.00000       150.0000     ylo yhi
           0   50.00000     zlo zhi
 
  Atoms
 
      1      1   49.9670   37.2130   31.2120
      2      1   49.9660   29.1700   35.9215
      3      1   50.0530   76.7820   48.2105
      4      1   49.9280   64.5560   46.1505
      5      1   50.0940   62.2130    4.2095
      6      1   49.8990   74.1520   45.3810
      7      1   49.8750   33.5720   35.1685
      8      1   50.1420   22.1120   27.8775
      9      1   49.8360   27.3830   19.4730
     10      1   50.1920   37.7200   29.8490
     11      1   49.8060   76.0510    7.9425
     12      1   49.7940   37.0230   23.2015
     13      1   50.2070   27.7850   35.6955
     14      1   49.7880   32.1650   35.6770
     15      1   49.7480   35.3540   20.8845
     16      1   50.2580   22.5640   30.3900
     17      1   49.7360   74.1950    9.6955
     18      1   50.2690   28.7210   19.2195
     19      1   50.2830   22.4350   25.2405
     20      1   50.3040   25.0810   21.0665
     21      1   49.6730   37.5640   24.5850
     22      1   49.6580   34.1650   19.9330
     23      1   49.6370   65.4030    9.7905
     24      1   49.6210   77.3240    5.7235
     25      1   50.3810   69.1350   10.8455
     26      1   49.6160   63.6800   47.3765
     27      1   50.3860   62.6320    5.6160
     28      1   49.6070   25.7660   34.4580
     29      1   50.4040   23.3930   23.0300
     30      1   49.5700   66.6370   10.5415
     31      1   49.5640   71.8950   10.8755
     32      1   50.4530   36.0260   33.4925
     33      1   49.5320   31.2100   18.8425
     34      1   50.4950   76.0370   46.9580
     35      1   50.5030   37.9110   26.8945
     36      1   49.4830   75.1680   46.3320
     37      1   49.4660   66.7600   44.8585
     38      1   49.4630   63.3960    7.7565
     39      1   49.4610   71.8730   44.4725
     40      1   50.5760   23.6330   32.6100
     41      1   50.5840   77.7130    0.5920
     42      1   50.5970   67.7330   10.4665
     43      1   49.3980   62.1550    1.3020
     44      1   50.6130   69.3400   43.7460
     45      1   50.6430   62.4290   49.2540
     46      1   50.6500   64.1010    8.0455
     47      1   49.3200   29.7570   18.7095
     48      1   50.6950   65.1200    9.0285
     49      1   49.2930   69.3600   44.2820
     50      1   50.7170   66.7390   44.2800
     51      1   49.2800   62.6900    6.4895
     52      1   49.2760   62.4590   49.9740
     53      1   50.7260   62.9230   47.9405
     54      1   49.2620   77.7050    0.9275
     55      1   49.2590   37.9660   27.5290
     56      1   49.2440   77.8640    3.2720
     57      1   50.7670   37.6200   25.4145
     58      1   49.1870   27.0080   35.0280
     59      1   50.8190   26.3610   20.3220
     60      1   50.8250   71.8080   43.9595
     61      1   49.1610   23.9570   32.6075
     62      1   50.8520   22.2370   29.1915
     63      1   50.8580   31.5770   19.4595
     64      1   49.1160   35.3540   33.5030
     65      1   50.8840   22.2060   26.5850
     66      1   49.1090   69.4740   11.3775
     67      1   50.8960   36.9740   32.3245
     68      1   49.0990   37.7960   28.8780
     69      1   49.0980   75.2780    9.0195
     70      1   50.9190   77.8560    3.0380
     71      1   50.9370   71.5480   10.4630
     72      1   50.9560   33.0270   19.9540
     73      1   49.0430   76.7900    7.0115
     74      1   50.9740   62.0060    1.9610
     75      1   50.9800   31.5970   36.3285
     76      1   39.9880   73.2120   49.5190
     77      1   60.0160   24.1160   32.0200
     78      1   39.9690   42.5470   17.1155
     79      1   39.9550   33.9910   14.5575
     80      1   39.9420   27.5990   17.2785
     81      1   39.9300   63.5510   15.5220
     82      1   60.0770   64.5530   39.4335
     83      1   39.9230   58.5730    4.8075
     84      1   39.9080   43.2500   18.5265
     85      1   51.0100   25.3110   34.5600
     86      1   39.8920   60.0260    2.7335
     87      1   39.8830   24.6130   21.3905
     88      1   51.0120   77.3210   49.1645
     89      1   39.8660   74.8680    1.5060
     90      1   60.1350   29.5230   23.3000
     91      1   48.9850   73.2110   10.5390
     92      1   60.1520   43.1820   33.2975
     93      1   60.1530   56.4880   45.1810
     94      1   39.8390   67.4020   15.2325
     95      1   60.1620   25.6080   35.4940
     96      1   60.1650   39.8990   27.6440
     97      1   39.8280   56.4820    9.8240
     98      1   60.1760   71.8560   41.8480
     99      1   60.1860   58.7900    0.6660
    100      1   39.7850   37.8090   29.3605
    101      1   39.7480   40.9050   26.1435
    102      1   60.2570   56.3180   43.8390
    103      1   60.2730   42.7840   31.9720
    104      1   39.7250   25.2080   28.5610
    105      1   39.7170   58.4060   14.2775
    106      1   60.2940   67.4050    6.7675
    107      1   39.7030   61.7880    0.9320
    108      1   60.3100   31.8650   40.0580
    109      1   60.3130   40.2780   39.9435
    110      1   39.6860   28.8320   16.3740
    111      1   60.3200   43.7670   36.0055
    112      1   39.6740   56.2260   11.2835
    113      1   60.3260   42.7960   38.4120
    114      1   39.6720   57.1620    6.9605
    115      1   39.6400   57.2300   13.5095
    116      1   60.3680   60.5920   39.7030
    117      1   39.6140   35.4250   14.2715
    118      1   60.3950   37.1170   25.0740
    119      1   39.6020   29.3270   31.5370
    120      1   60.4120   30.9340   23.2250
    121      1   60.4150   74.5280   44.7925
    122      1   39.5800   42.4210   23.9590
    123      1   60.4240   57.9440   49.5930
    124      1   48.9570   65.6130   45.7595
    125      1   60.4650   38.8300   40.5170
    126      1   51.0490   77.2240    5.5170
    127      1   39.4950   65.0160   15.7450
    128      1   51.0520   36.3880   22.7930
    129      1   60.5280   57.0490   41.2470
    130      1   60.5290   63.1960   39.1875
    131      1   39.4650   74.7530    9.7750
    132      1   60.5360   66.0300    6.3780
    133      1   39.4620   24.1940   23.8520
    134      1   39.4600   24.4010   26.3070
    135      1   39.4490   70.9350   48.6330
    136      1   60.5690   43.9280   37.4535
    137      1   48.9430   73.0480   45.0930
    138      1   39.4270   60.9120   15.5710
    139      1   39.4180   75.6970    4.2605
    140      1   39.3950   63.7540   49.6010
    141      1   60.6110   27.2130   24.6075
    142      1   60.6130   25.4280   26.4635
    143      1   60.6270   25.0160   34.2510
    144      1   60.6400   58.1040   40.2750
    145      1   51.0650   35.4850   21.6995
    146      1   39.3520   75.2490    8.5595
    147      1   39.3360   40.8140   14.8185
    148      1   60.6800   67.0130   39.5495
    149      1   60.6840   27.2600   37.3690
    150      1   39.3080   30.7950   31.6555
    151      1   60.6980   38.8850   26.5205
    152      1   39.2970   43.0610   15.9405
    153      1   39.2880   75.7500    5.6960
    154      1   60.7360   63.3720    5.1500
    155      1   39.2630   43.7420   21.8015
    156      1   51.0740   30.1160   36.4425
    157      1   39.2590   44.5430   18.6145
    158      1   60.7540   41.6050   29.4230
    159      1   60.9890   69.3050   40.2815
    160      1   39.2300   31.5740   14.9265
    161      1   39.2220   57.5880    5.5975
    162      1   39.2000   59.0460    3.5670
    163      1   60.8040   62.1900    4.3850
    164      1   39.1850   68.4770   48.3635
    165      1   39.1820   26.0560   19.0370
    166      1   48.9170   33.6940   19.3195
    167      1   60.8260   75.3910   47.0340
    168      1   60.8270   69.7070    6.5245
    169      1   60.8380   65.7080   39.1930
    170      1   60.8410   33.6990   23.6400
    171      1   60.8420   73.6340   43.6400
    172      1   39.1470   39.6050   27.8935
    173      1   51.0860   22.9380   31.5380
    174      1   39.1240   62.3450   15.9910
    175      1   39.1140   66.0380   48.7395
    176      1   60.8910   44.6840   35.0725
    177      1   60.9050   35.7200   41.0015
    178      1   39.0950   55.6620    8.9475
    179      1   39.0910   27.3100   30.2680
    180      1   39.0870   72.2590   49.4875
    181      1   51.0920   22.9320   24.1305
    182      1   60.9380   42.7860   39.7750
    183      1   39.0600   60.7270    1.7775
    184      1   39.0570   55.0310   11.7550
    185      1   60.9500   55.0180   43.4010
    186      1   60.9540   44.3350   33.7935
    187      1   39.0440   41.8540   25.3430
    188      1   39.0190   33.6640   31.3230
    189      1   61.0020   56.1980   47.4730
    190      1   38.9860   35.1060   30.8530
    191      1   38.9790   32.9930   14.4075
    192      1   61.0220   35.1320   24.1770
    193      1   38.9710   55.9450   14.1545
    194      1   38.9690   42.1790   14.7870
    195      1   38.9450   38.3500   13.9310
    196      1   38.9400   58.4990   15.4850
    197      1   61.0610   75.5970   49.5730
    198      1   61.0680   55.5860   46.2000
    199      1   61.0770   60.0430    2.6160
    200      1   48.8920   23.2240   22.9085
    201      1   38.9130   45.1620   17.2275
    202      1   61.0910   40.8090   28.2780
    203      1   61.0910   55.7480   40.9120
    204      1   61.1000   28.5070   24.1760
    205      1   61.1020   25.0300   27.6975
    206      1   61.1040   73.9400    3.9420
    207      1   61.1070   45.1270   37.8985
    208      1   38.8900   44.3830   15.9640
    209      1   61.1120   75.0570    2.0235
    210      1   61.1150   71.9620    5.5880
    211      1   61.1160   34.2770   40.9260
    212      1   38.8780   56.0590    7.5780
    213      1   38.8670   43.4500   23.2585
    214      1   61.1350   54.7440   42.0660
    215      1   38.8540   40.4810   27.1245
    216      1   61.1470   26.3670   36.2725
    217      1   61.0800   41.3980   40.4175
    218      1   51.1160   34.4070   35.3290
    219      1   38.8340   73.4670   11.4740
    220      1   51.1170   24.2600   22.1435
    221      1   38.8240   26.9870   17.9735
    222      1   38.8140   54.7880   13.2795
    223      1   61.1980   29.3020   38.9820
    224      1   38.7920   62.6880    0.2885
    225      1   38.7770   45.3020   19.8010
    226      1   38.7730   28.6100   30.8155
    227      1   38.7580   71.8680   13.1015
    228      1   61.2600   68.3340    6.4465
    229      1   61.2810   59.0170    1.6495
    230      1   61.2940   24.5240   31.5525
    231      1   38.7050   59.8040   16.0605
    232      1   61.3320   26.4960   25.7250
    233      1   38.6600   74.4530    2.0665
    234      1   61.3500   74.7940   45.7920
    235      1   38.6470   39.8390   13.8475
    236      1   38.6450   69.7620   48.7600
    237      1   51.1360   73.9260    9.3955
    238      1   61.3780   43.3330   31.2100
    239      1   38.6190   44.8500   21.2385
    240      1   61.4000   45.2900   39.3060
    241      1   38.5850   69.7840   14.5305
    242      1   61.4210   60.4150   38.7350
    243      1   61.4240   68.0100   39.6135
    244      1   38.5580   54.0740   10.8255
    245      1   61.4490   24.5840   30.1780
    246      1   61.4710   46.1920   36.7955
    247      1   61.4740   44.0820   40.2240
    248      1   38.5040   25.1070   21.2075
    249      1   61.5040   45.9100   35.4175
    250      1   61.5040   54.0480   44.4235
    251      1   61.5060   57.8890   39.0330
    252      1   38.4800   64.8550   49.2920
    253      1   38.4720   46.5340   17.1305
    254      1   38.4660   56.0170   15.4370
    255      1   61.6600   31.4350   40.0795
    256      1   38.4420   54.4480    9.4775
    257      1   61.5600   53.4350   41.6995
    258      1   38.4180   74.9940    3.4855
    259      1   38.4150   67.2940   48.7345
    260      1   38.4090   67.6060   15.5470
    261      1   38.3970   53.4560   13.6415
    262      1   61.6110   71.5540   41.6535
    263      1   38.3860   35.8020   13.6500
    264      1   38.3740   74.1380   10.3415
    265      1   38.3690   25.9890   28.3675
    266      1   38.3680   37.8100   29.3825
    267      1   61.6350   55.4560   39.6215
    268      1   38.3580   57.3960   16.0000
    269      1   48.8350   22.7460   30.3930
    270      1   61.6490   70.6240    5.8590
    271      1   61.6500   75.2860   48.2125
    272      1   61.6560   38.3480   41.4835
    273      1   38.3390   44.8620   14.7105
    274      1   61.6690   57.1020   49.6665
    275      1   48.8330   24.8120   20.8655
    276      1   61.6820   42.6260   29.9775
    277      1   61.6840   28.1310   38.0690
    278      1   61.6960   70.2140   40.7695
    279      1   61.7030   74.2960    2.9060
    280      1   38.2860   29.3190   16.0100
    281      1   61.7210   46.6360   39.5065
    282      1   61.7260   54.4460   45.8810
    283      1   61.7360   62.9830   38.4880
    284      1   61.7370   72.7820    4.5805
    285      1   61.7370   31.3240   23.8035
    286      1   61.7570   75.0710    0.8010
    287      1   38.2390   47.0840   15.7945
    288      1   61.8060   53.1400   40.2370
    289      1   38.1790   52.4390   12.5260
    290      1   61.8270   47.7400   38.4485
    291      1   38.1710   47.2870   18.2400
    292      1   61.8300   52.4620   42.6060
    293      1   38.1650   25.7580   19.9655
    294      1   38.1600   65.2360   16.2665
    295      1   61.8450   65.6390    5.8615
    296      1   38.1430   42.6060   13.6980
    297      1   38.1310   46.6730   19.5240
    298      1   61.8700   47.4600   37.1455
    299      1   38.1300   75.0490    7.8235
    300      1   38.1290   46.1900   14.6380
    301      1   38.1270   25.0560   26.1460
    302      1   38.1270   52.9620   15.0345
    303      1   61.8370   41.0290   41.4530
    304      1   61.8770   56.0580   48.5870
    305      1   38.1160   75.2230    6.3890
    306      1   61.8880   45.0780   32.9570
    307      1   61.8960   59.0540   38.4235
    308      1   38.1000   31.3970   31.1370
    309      1   38.0970   52.8130   11.2350
    310      1   38.0920   26.9600   29.2470
    311      1   38.0840   72.7210   12.1740
    312      1   38.0800   30.6830   15.1635
    313      1   61.9220   36.7660   41.6075
    314      1   61.9240   54.1570   39.3130
    315      1   38.0720   37.2670   13.3435
    316      1   38.0670   24.7870   23.6990
    317      1   61.9390   56.5420   38.7150
    318      1   61.9450   32.7510   23.8900
    319      1   61.9580   52.8020   43.9955
    320      1   38.0370   48.5040   15.6370
    321      1   48.8030   22.3610   25.2330
    322      1   61.9870   64.3070    5.3930
    323      1   62.0080   36.9930   25.2070
    324      1   62.0140   50.7850   40.6810
    325      1   62.0190   49.0970   38.7115
    326      1   62.0200   51.8140   39.7170
    327      1   37.9750   51.4390   15.2345
    328      1   62.0260   25.2760   33.7215
    329      1   37.9680   50.5650   14.1325
    330      1   62.0350   49.4100   40.1170
    331      1   37.9650   39.0410   28.5155
    332      1   62.0630   46.9530   40.7730
    333      1   37.9360   72.3530    0.3425
    334      1   62.0700   51.1380   42.1075
    335      1   48.7920   32.2180   18.6875
    336      1   37.9240   62.6920   16.7270
    337      1   37.9200   43.9680   13.5975
    338      1   37.9170   70.8720   13.8565
    339      1   37.9140   49.0640   14.3405
    340      1   37.9020   51.0700   12.8175
    341      1   62.1160   30.1330   39.4570
    342      1   37.8930   49.4010   16.7395
    343      1   37.8930   32.8230   31.0365
    344      1   48.7880   34.1360   34.3385
    345      1   37.8760   55.1510   16.3010
    346      1   62.1290   44.3660   41.4540
    347      1   37.8570   57.0560    4.9935
    348      1   62.1440   61.5850   38.1655
    349      1   37.8390   53.8370   16.2415
    350      1   51.2160   75.8690    7.6945
    351      1   62.1680   65.5100   38.6780
    352      1   62.1850   48.3710   41.1215
    353      1   62.1900   44.4740   31.6995
    354      1   62.1990   38.8220   26.3170
    355      1   37.7980   58.6980    3.2955
    356      1   37.7950   48.7340   18.0065
    357      1   37.7930   55.3690    6.8770
    358      1   51.2210   64.4520   45.5015
    359      1   51.2220   68.0170   43.6520
    360      1   62.2220   61.7960    4.0930
    361      1   37.7770   50.8350   16.5450
    362      1   62.2240   39.3830   41.8635
    363      1   37.7640   68.7710   15.1425
    364      1   62.2550   73.1710   43.4735
    365      1   62.2700   46.8030   34.4885
    366      1   62.2740   35.7670   24.7185
    367      1   37.7240   73.3860    1.4725
    368      1   37.7010   42.2230   25.8065
    369      1   62.2990   50.1600   37.8430
    370      1   62.3210   60.6020    3.2940
    371      1   62.3210   51.5020   38.2850
    372      1   62.3340   25.0690   32.3830
    373      1   37.6650   60.0620   17.0045
    374      1   62.3380   25.5830   28.1735
    375      1   37.6580   46.7060   13.3580
    376      1   37.6540   43.9680   24.0160
    377      1   62.3480   33.9010   41.2245
    378      1   37.6450   48.1600   13.2175
    379      1   37.6350   35.6250   30.3190
    380      1   37.6320   33.4760   13.9085
    381      1   62.3970   45.8910   41.8030
    382      1   62.4060   48.4940   36.0745
    383      1   37.5940   40.2120   12.9595
    384      1   37.5830   45.6480   22.1830
    385      1   37.5770   53.6470    8.6385
    386      1   51.2430   62.1280    3.3850
    387      1   37.5690   25.8420   27.2055
    388      1   37.5690   29.1620   30.3085
    389      1   37.5680   25.1640   22.3445
    390      1   37.5660   66.5590   16.0960
    391      1   62.4350   28.9170   24.8335
    392      1   62.7640   67.8430   39.4425
    393      1   37.5320   27.5280   17.6635
    394      1   37.5210   60.5870    1.7250
    395      1   62.4930   50.1190   43.0075
    396      1   62.5100   53.8810   37.9825
    397      1   62.5220   40.8770   27.8255
    398      1   37.4740   57.4240   17.1435
    399      1   62.5260   25.2560   29.5775
    400      1   62.5280   41.8580   42.1330
    401      1   62.5410   67.8870    5.8770
    402      1   37.4560   41.6140   12.8415
    403      1   37.4510   41.2730   26.9010
    404      1   37.4340   25.1650   24.8570
    405      1   37.4280   51.8950   10.2660
    406      1   37.4250   50.1130   11.7700
    407      1   62.5880   48.7260   42.5850
    408      1   62.5910   46.3200   33.3065
    409      1   62.5920   27.0010   26.3110
    410      1   37.3940   64.1180   16.7800
    411      1   62.6130   51.8570   44.8205
    412      1   62.6140   64.1420   38.2185
    413      1   62.6140   26.4460   35.7885
    414      1   37.3800   34.8500   13.4370
    415      1   48.7370   22.1750   27.8885
    416      1   37.3670   69.8670   49.4875
    417      1   37.3620   47.4610   20.5460
    418      1   62.6430   58.3600    1.5690
    419      1   62.6430   49.8380   36.5095
    420      1   37.3530   51.6620   17.6205
    421      1   62.6550   72.2000   42.4160
    422      1   62.6740   53.5620   46.7245
    423      1   37.3240   36.9230   29.7510
    424      1   62.6870   56.3460   37.7080
    425      1   62.6930   52.5520   37.4745
    426      1   62.7040   43.3670   42.3275
    427      1   37.2770   62.5960    0.5000
    428      1   37.2630   53.1410   17.5170
    429      1   37.2500   28.6270   16.6045
    430      1   62.7640   74.2330   45.6855
    431      1   37.2310   49.5370   19.0180
    432      1   48.7230   70.8960   11.4240
    433      1   62.7730   48.1190   34.7955
    434      1   37.2220   48.7040   11.9625
    435      1   37.2210   55.9400    5.6550
    436      1   62.7920   57.2910    0.6590
    437      1   62.7940   30.3220   24.5360
    438      1   37.2040   56.0730   17.4195
    439      1   37.2040   74.4920    4.1820
    440      1   37.1900   30.4810   30.5115
    441      1   37.1870   61.5170   17.2515
    442      1   37.1740   44.4050   12.5260
    443      1   37.1560   57.6930    3.9320
    444      1   37.1510   73.9750    9.8570
    445      1   37.1450   54.1710    7.4075
    446      1   62.8600   73.2970    3.0800
    447      1   62.8630   37.7400   25.6815
    448      1   37.1230   45.8140   12.3585
    449      1   62.8840   66.5670    5.6815
    450      1   37.1130   28.1050   29.3370
    451      1   62.8910   72.4420    3.9235
    452      1   62.9090   50.4990   44.3315
    453      1   37.0870   64.9170   49.6535
    454      1   62.9140   58.8570   37.4910
    455      1   37.0780   67.3940   49.3020
    456      1   62.9300   70.2490    5.2170
    457      1   48.7060   76.7750   48.6495
    458      1   37.0330   50.5640   10.5100
    459      1   37.0320   74.6670    5.6500
    460      1   62.9690   42.8870   29.3985
    461      1   62.9700   54.9850   37.2845
    462      1   37.0240   52.3550    9.0175
    463      1   37.0210   74.3900    8.5545
    464      1   37.0210   71.1340    0.2150
    465      1   37.0170   58.7860   17.5730
    466      1   37.0140   45.0590   23.5040
    467      1   51.2990   70.5760   43.5145
    468      1   62.9960   74.6530   48.1260
    469      1   63.0020   74.3950    0.6735
    470      1   36.9750   43.2370   25.2640
    471      1   63.0280   25.9470   34.4800
    472      1   36.9720   46.8880   21.7680
    473      1   63.0350   46.3160   42.9835
    474      1   36.9510   59.5370    2.4090
    475      1   51.3050   74.1030   44.9050
    476      1   36.9050   51.0310   18.8265
    477      1   63.0960   39.9040   26.9880
    478      1   63.1030   47.7340   43.4175
    479      1   63.1070   52.2200   46.0925
    480      1   63.1100   26.4860   27.5250
    481      1   36.8710   37.8010   12.6545
    482      1   63.1360   28.1380   37.7830
    483      1   63.1380   55.1050   48.7925
    484      1   63.1460   66.5490   38.7540
    485      1   36.8380   48.8780   20.2735
    486      1   48.6800   29.7970   35.4825
    487      1   36.7990   26.3480   19.7580
    488      1   63.2060   28.1280   25.8510
    489      1   63.2250   33.2500   24.4590
    490      1   63.2430   73.5040   44.5200
    491      1   63.2490   36.2600   42.1010
    492      1   63.2730   57.4960   37.0940
    493      1   36.7090   31.1570   14.8400
    494      1   63.3070   50.8860   35.7015
    495      1   36.6900   39.2570   12.3540
    496      1   63.3160   39.3280   42.6425
    497      1   48.6680   61.9700    3.7195
    498      1   63.3350   52.2580   36.2240
    499      1   36.6640   39.5990   28.1780
    500      1   63.3380   44.8560   30.9575
    501      1   63.3380   63.9090    4.9205
    502      1   36.6480   61.5550    1.0910
    503      1   36.6350   72.6170   11.8000
    504      1   63.3730   34.8330   24.7505
    505      1   36.6180   33.2520   30.4710
    506      1   63.3890   68.8860    5.3125
    507      1   63.3910   61.4590   37.4350
    508      1   36.5960   73.1160    2.3000
    509      1   36.5780   53.9750   18.4935
    510      1   63.4260   53.9060   47.9750
    511      1   36.5700   68.6820   49.6585
    512      1   48.6550   25.0280   33.5470
    513      1   63.4630   34.8390   41.7935
    514      1   63.4680   40.8920   42.9040
    515      1   63.4730   41.9340   28.3915
    516      1   36.5240   27.1870   18.5195
    517      1   36.5120   32.5310   14.1045
    518      1   48.6510   68.0580   44.7670
    519      1   63.5130   29.7940   39.3045
    520      1   63.5050   62.5800    4.3855
    521      1   36.4910   47.8020   10.9420
    522      1   63.5300   73.5610    1.8970
    523      1   36.4870   63.7240    0.1740
    524      1   48.6490   37.0320   22.3930
    525      1   36.4820   55.5930   18.3365
    526      1   63.5500   71.2480    4.2890
    527      1   36.4230   70.8600   13.6815
    528      1   63.5780   25.6390   31.7245
    529      1   63.5840   27.2590   36.5375
    530      1   63.5860   74.1960   46.8415
    531      1   36.4070   26.5530   26.9810
    532      1   36.3970   40.8880   27.4100
    533      1   36.3930   34.6110   30.2240
    534      1   63.6140   25.7660   30.2935
    535      1   36.3830   66.2000   49.6690
    536      1   36.3790   46.3660   11.1980
    537      1   63.6230   49.5310   45.0280
    538      1   36.3720   42.0880   11.8535
    539      1   63.6500   74.2710   49.3885
    540      1   51.3660   35.6430   34.4885
    541      1   63.6590   43.9170   43.4155
    542      1   51.3680   70.2090   10.4795
    543      1   36.3170   73.6800    3.5910
    544      1   63.6830   46.9340   32.4490
    545      1   36.3150   43.5170   11.6385
    546      1   63.6870   60.0920   37.0720
    547      1   36.2790   25.8140   22.1700
    548      1   63.7220   45.3410   43.7225
    549      1   63.7230   48.1590   44.5365
    550      1   63.7570   60.0790    3.0295
    551      1   36.2400   68.8940   15.1250
    552      1   63.7830   49.0610   33.9520
    553      1   36.1900   49.7360    9.6075
    554      1   63.8130   43.9750   29.8890
    555      1   63.8300   54.7430   36.1810
    556      1   48.6160   70.6610   44.5640
    557      1   36.1620   73.2330   10.5770
    558      1   36.1520   66.6630   16.3035
    559      1   36.1520   25.8940   24.6620
    560      1   36.1380   51.7270   19.7620
    561      1   63.8740   58.8620    2.2710
    562      1   36.1160   35.3030   12.9515
    563      1   63.9120   63.8610   37.7020
    564      1   36.0560   64.3290   17.1695
    565      1   36.0240   51.6150    8.2260
    566      1   36.0130   28.4710   28.6970
    567      1   64.0080   28.9280   38.3820
    568      1   64.0120   53.3450   35.6295
    569      1   35.9730   30.8620   29.8820
    570      1   48.5960   31.3110   35.3525
    571      1   35.9470   53.4930    6.7560
    572      1   35.9220   36.7890   12.4760
    573      1   64.0790   51.3240   46.6915
    574      1   64.0790   50.4840   34.4230
    575      1   35.9180   61.8120   17.8385
    576      1   64.0820   56.5890    0.6695
    577      1   64.0850   71.7220   42.3465
    578      1   35.9130   49.6320   21.1030
    579      1   35.9120   29.2170   16.3540
    580      1   35.9000   53.1920   19.5325
    581      1   48.5890   36.2660   21.1695
    582      1   64.1130   66.1460    5.1330
    583      1   35.8850   55.4620    5.1630
    584      1   64.1160   30.8650   25.1815
    585      1   35.8790   74.0560    6.4410
    586      1   64.1270   46.0740   31.3575
    587      1   35.8730   71.1190    1.0850
    588      1   48.5870   77.6820    4.6005
    589      1   35.8540   73.9530    7.9110
    590      1   35.8520   48.3840    9.8475
    591      1   35.8480   26.3470   20.8250
    592      1   35.8370   47.5930   22.5345
    593      1   35.8160   59.0180   18.3985
    594      1   35.8150   71.7240   12.5855
    595      1   64.2200   55.4470   49.8825
    596      1   35.7720   37.2780   29.3115
    597      1   35.7430   45.6150   24.0925
    598      1   64.2820   62.5760   37.2400
    599      1   35.7100   57.3630    3.6675
    600      1   64.2990   49.9950   46.1160
    601      1   64.3000   26.9990   28.2495
    602      1   35.6830   26.4960   25.7265
    603      1   64.3180   37.3980   25.7905
    604      1   35.6730   27.6780   27.6880
    605      1   64.3330   57.2590   36.1840
    606      1   64.3390   32.3660   25.0175
    607      1   35.6600   72.0690    2.0405
    608      1   64.3550   26.3570   33.8705
    609      1   64.3710   48.3600   32.7870
    610      1   35.6080   32.2070   29.9415
    611      1   35.6070   39.6870   11.7010
    612      1   64.3830   30.7980   39.8325
    613      1   35.5860   50.3280    8.5715
    614      1   35.5770   30.3830   15.4365
    615      1   64.4250   64.8200    4.8410
    616      1   64.4280   28.7010   26.4590
    617      1   64.4310   38.4490   43.0410
    618      1   35.5660   69.8950   14.3380
    619      1   35.5610   43.5410   25.7490
    620      1   35.5380   50.9880   20.7830
    621      1   64.4630   37.0690   42.6940
    622      1   64.4780   70.7150   41.4025
    623      1   64.4960   35.4220   25.2635
    624      1   35.4960   26.1660   23.3295
    625      1   35.4710   67.8340   15.7370
    626      1   35.4690   38.6580   28.6835
    627      1   64.5490   66.2460   38.4520
    628      1   35.4460   56.3630   19.1485
    629      1   35.4270   41.1160   11.3185
    630      1   64.5770   47.2020   45.1320
    631      1   64.5770   41.4690   43.7240
    632      1   35.4080   65.5520   16.8635
    633      1   64.5930   42.9860   44.0415
    634      1   64.5970   26.2560   32.4535
    635      1   35.4020   59.3910    2.3415
    636      1   64.6010   72.7400    1.7220
    637      1   64.6070   55.8670   35.6950
    638      1   35.3860   45.4350   10.3880
    639      1   64.6160   26.6060   29.6140
    640      1   35.3790   52.2290    7.1955
    641      1   64.6290   68.5490    4.6530
    642      1   35.3640   68.8290    0.4040
    643      1   64.6440   45.8010   44.7520
    644      1   64.6690   39.7840   26.8815
    645      1   64.6770   72.8600   44.4845
    646      1   35.3170   63.1980   17.7040
    647      1   35.3010   48.9200   22.1415