 Lammps data file for helix_gr
 
        1258 atoms
           1 atom types
 
  -50.00000       150.0000     xlo xhi
  -50.00000       150.0000     ylo yhi
           0   50.00000     zlo zhi
 
  Atoms
 
      1      1   50.0420   47.5220   49.7785
      2      1   49.9970   50.5320   49.8755
      3      1   50.0070   39.5950   47.5670
      4      1   49.9870   41.7460   26.3010
      5      1   50.0140   50.0260   14.7055
      6      1   50.0230   49.9770   13.1985
      7      1   49.9760   49.7780   23.6110
      8      1   50.0300   49.7080    1.0760
      9      1   49.9680   49.9540   19.9100
     10      1   49.9650   46.5880   25.0970
     11      1   49.9630   50.0010   33.8620
     12      1   50.0380   50.1590   48.7130
     13      1   50.0510   37.3550   29.3770
     14      1   49.9450   48.8320   24.6125
     15      1   50.0580   54.1940   24.6710
     16      1   50.0580   44.1970   25.6120
     17      1   50.0590   49.9310   28.7945
     18      1   50.0750   51.9560   49.8990
     19      1   49.9250   51.5840   25.3645
     20      1   50.0900   49.1890   26.0195
     21      1   49.8440   46.1120   49.5520
     22      1   49.8970   50.5750   26.4105
     23      1   50.1130   49.7430    3.6865
     24      1   50.1150   54.8060    0.0965
     25      1   49.8710   50.3460    2.4775
     26      1   50.1320   65.6860   10.1565
     27      1   50.1360   60.9800    2.7430
     28      1   50.1500   56.3520    0.4885
     29      1   50.1500   51.1960   24.0005
     30      1   50.1500   50.3080   21.2600
     31      1   50.0700   40.6320   48.2820
     32      1   49.8230   65.2530   16.3545
     33      1   50.1840   49.7770   31.2870
     34      1   49.8130   37.2560   45.4085
     35      1   49.8050   48.7600   48.6360
     36      1   50.1960   64.9110    7.7115
     37      1   49.7930   49.4560   22.2290
     38      1   50.2160   49.7560    6.2585
     39      1   49.7650   36.2670   44.1625
     40      1   49.7570   50.1830    7.6505
     41      1   50.2530   50.4540   46.2400
     42      1   50.2540   59.5010   22.8875
     43      1   50.2640   48.1770    1.0170
     44      1   49.7340   62.6630    4.5260
     45      1   49.7300   50.3370   30.1135
     46      1   50.2750   63.6570    5.4130
     47      1   49.7240   47.5730   24.1955
     48      1   49.7230   53.0920   25.6410
     49      1   50.2810   36.4530   30.5905
     50      1   49.5850   65.6160   14.8520
     51      1   49.6800   50.9130   27.7175
     52      1   49.6740   55.5480   24.9930
     53      1   49.6710   52.5360    1.1340
     54      1   50.3300   50.9450   47.5020
     55      1   49.6670   50.3980    5.0755
     56      1   50.3550   63.7780   19.0335
     57      1   49.6440   34.4780   40.1380
     58      1   49.6410   49.2800   46.1445
     59      1   49.6360   34.9210   41.6020
     60      1   49.6310   45.2060   24.7190
     61      1   49.6230   65.8270   11.5800
     62      1   50.4080   48.2860   26.9365
     63      1   50.4120   60.6770   22.0390
     64      1   49.5790   39.4030   27.2545
     65      1   49.5730   42.8480   25.4105
     66      1   50.4330   49.8830   10.1540
     67      1   49.5570   34.1210   37.0365
     68      1   50.4770   52.8250   48.8010
     69      1   49.5190   58.4610    1.8525
     70      1   49.5160   49.5220   43.6945
     71      1   49.5130   50.3260   32.6030
     72      1   49.5120   64.1440    6.6005
     73      1   49.6390   50.0440   36.4660
     74      1   49.5000   53.9750    1.1795
     75      1   50.5010   50.3980   17.6415
     76      1   50.5040   46.9440   26.4315
     77      1   49.4920   65.2720    9.0620
     78      1   50.5210   52.1770   23.0140
     79      1   49.4730   48.3840   47.4880
     80      1   49.4420   34.2590   35.5110
     81      1   49.4340   51.7510    2.5130
     82      1   50.5660   59.1940    1.2330
     83      1   50.5670   62.8700   20.0525
     84      1   50.5750   62.1070    3.4275
     85      1   50.5930   48.6380   28.3760
     86      1   49.3720   49.6260   41.3185
     87      1   50.6190   49.6800    8.6940
     88      1   49.3730   56.9750    1.5805
     89      1   50.6300   35.0680   33.2305
     90      1   50.6310   53.6670   23.4080
     91      1   49.3670   49.5840   17.1495
     92      1   50.6700   50.7290   19.0275
     93      1   49.3280   62.7310   20.9655
     94      1   50.6750   50.6660   43.7570
     95      1   50.6880   54.2360   48.9535
     96      1   49.4330   49.9460   38.8915
     97      1   49.3040   35.0730   32.5350
     98      1   50.7040   51.6110   21.6555
     99      1   50.7080   34.5680   34.7125
    100      1   50.7160   52.2840   47.6625
    101      1   49.2710   61.7220   22.0260
    102      1   49.2610   40.4690   26.2980
    103      1   50.7610   65.8530   12.4735
    104      1   50.7640   39.5380   28.0760
    105      1   50.7730   65.7180   13.9035
    106      1   49.1990   41.9570   47.9560
    107      1   50.7820   47.4260    2.3025
    108      1   50.7900   48.3530    3.5700
    109      1   49.2040   45.8990   48.2555
    110      1   49.2020   48.1740   21.8370
    111      1   49.1730   50.1930   10.6765
    112      1   50.8350   50.4310   41.3700
    113      1   49.1640   47.2380   22.8015
    114      1   50.8400   50.1520   38.9640
    115      1   49.1500   35.7100   31.1465
    116      1   49.1490   48.8390   44.9230
    117      1   50.8580   34.9780   42.3450
    118      1   49.1420   53.3200   26.8980
    119      1   50.8660   34.2230   39.3495
    120      1   50.8660   34.1270   37.7980
    121      1   49.1110   52.1880   28.1085
    122      1   50.8930   44.5380   26.7330
    123      1   50.9070   35.5890   43.6965
    124      1   49.0750   48.8590   19.5580
    125      1   49.0730   50.2500   35.1930
    126      1   50.9360   60.3760    1.7270
    127      1   50.9480   49.8360   36.4700
    128      1   50.9560   51.2410   45.0185
    129      1   49.0400   58.1760   24.6435
    130      1   50.9730   40.6960   49.0190
    131      1   49.0230   59.3570   23.9880
    132      1   51.0690   42.1090   49.8065
    133      1   39.9990   42.8890   38.4650
    134      1   39.9880   38.9660   36.3530
    135      1   39.9840   45.3620   38.0560
    136      1   39.9760   37.9270   34.0315
    137      1   39.9570   50.9800   34.4765
    138      1   60.0460   42.2840   36.6460
    139      1   51.0050   45.9030   27.1745
    140      1   51.0050   37.3550   46.2250
    141      1   60.0570   56.3710   13.3125
    142      1   60.1030   39.0800   38.6760
    143      1   60.1090   54.8180   13.0060
    144      1   60.1240   50.3290   10.4940
    145      1   48.9860   49.5880   15.6325
    146      1   60.2020   61.8710    4.6295
    147      1   39.7690   40.1920   37.2025
    148      1   60.2360   49.2170    9.5420
    149      1   51.0270   41.9130   27.2625
    150      1   39.7270   61.7960   20.5285
    151      1   60.3010   43.7210   36.9110
    152      1   39.6960   53.1270   32.4715
    153      1   39.6740   59.6520   12.8630
    154      1   48.9630   46.9550   47.2435
    155      1   39.6290   54.2140   31.4290
    156      1   39.6260   38.0220   32.5845
    157      1   48.9590   51.4950    5.0855
    158      1   60.4360   38.4330   45.9930
    159      1   60.4420   47.0640    7.5740
    160      1   39.5300   61.2390   21.9335
    161      1   60.4720   61.8950    6.1730
    162      1   60.5040   45.9910    6.5555
    163      1   60.5490   41.2800   37.6075
    164      1   39.4390   56.2500   29.2880
    165      1   60.5830   43.9530    4.5095
    166      1   51.0590   38.5460   47.4460
    167      1   60.5980   60.7840   10.4955
    168      1   39.3920   38.9440   35.0020
    169      1   48.9390   64.3840   18.7705
    170      1   60.6230   38.9880   47.2620
    171      1   51.0620   58.2980   22.6515
    172      1   39.3540   47.6660   36.4230
    173      1   60.6550   38.5540   41.1305
    174      1   48.9340   60.2970    3.2280
    175      1   39.3280   57.2170   28.1545
    176      1   39.3200   59.8620   24.5405
    177      1   39.3180   55.3960   12.4165
    178      1   60.7110   42.9780    3.3690
    179      1   60.7140   61.2940    9.1245
    180      1   39.2850   56.7710   12.4065
    181      1   39.2790   61.7200   17.7920
    182      1   39.2780   59.0490   25.7935
    183      1   51.0730   38.4780   29.0790
    184      1   60.7450   60.7180    2.2320
    185      1   60.7730   58.6740   12.0535
    186      1   60.7860   38.3530   43.5820
    187      1   39.1010   45.2810   19.1965
    188      1   60.8000   52.5520   11.4155
    189      1   48.9200   39.3850   46.5805
    190      1   60.9210   46.4500   38.2225
    191      1   60.8320   40.3140   49.7155
    192      1   60.8780   39.3840   39.8910
    193      1   39.1200   48.7660   35.5735
    194      1   60.8850   41.1200    0.9170
    195      1   39.0130   46.9720   17.9710
    196      1   39.1090   42.6570   37.3170
    197      1   39.1080   60.9130   15.5285
    198      1   39.1010   38.6260   29.6675
    199      1   60.9150   57.2970   12.3255
    200      1   39.0470   39.3680   27.3825
    201      1   39.0050   53.1930   13.4815
    202      1   38.9850   41.3200   36.6850
    203      1   61.0360   59.4450    0.1575
    204      1   38.9630   45.2290   37.0120
    205      1   38.9480   43.7420   21.0055
    206      1   61.0680   51.4130   10.5340
    207      1   38.9230   59.0940   13.7225
    208      1   38.8480   61.2790   19.1625
    209      1   61.1300   54.9110   11.9500
    210      1   38.8580   48.9410   16.1235
    211      1   61.1450   60.9290    3.6960
    212      1   61.1540   48.5090   39.5000
    213      1   38.8410   51.0570   14.7620
    214      1   51.1180   57.2180   49.7120
    215      1   61.1860   59.3770   10.8855
    216      1   61.2040   44.1410   38.0440
    217      1   61.2080   57.8870   48.0475
    218      1   38.7630   40.7310   25.0540
    219      1   61.2430   38.8510   44.8445
    220      1   38.7470   51.0200   33.6875
    221      1   61.3380   54.3180   44.2480
    222      1   61.2660   38.9630   42.3495
    223      1   48.8720   50.0170   12.3050
    224      1   48.8710   52.3290    3.7020
    225      1   61.2940   50.5640   40.9925
    226      1   38.6860   54.4550   13.3515
    227      1   61.3200   56.1210   46.0235
    228      1   38.6800   60.9050   16.9275
    229      1   38.6750   42.2270   22.9915
    230      1   61.3520   52.4690   42.5610
    231      1   38.6450   57.6140   13.4645
    232      1   38.6310   52.1440   32.7085
    233      1   38.6080   39.0200   32.2355
    234      1   61.4000   49.1480    8.6990
    235      1   38.5980   39.3010   28.5430
    236      1   38.5950   46.4050   36.2605
    237      1   61.4090   41.5700   38.8175
    238      1   61.6010   45.3120   38.5820
    239      1   61.5580   47.4710   39.2595
    240      1   38.5210   43.8300   36.6415
    241      1   38.5130   59.6060   14.9030
    242      1   38.4560   46.2840   18.6995
    243      1   61.5010   60.9430    6.6995
    244      1   61.5050   53.7280   11.2190
    245      1   61.5090   60.6160    8.1725
    246      1   61.5160   59.7870    1.4090
    247      1   38.4840   40.0170   34.5420
    248      1   61.5210   48.0360    7.7385
    249      1   61.5270   56.2860   11.5770
    250      1   38.4470   60.3160   22.2305
    251      1   38.4910   44.8470   20.1180
    252      1   48.8670   44.4640   47.8765
    253      1   38.4310   54.2960   30.6445
    254      1   61.6070   40.5970   39.9235
    255      1   38.3850   52.2560   14.5105
    256      1   38.3830   39.1750   30.8775
    257      1   48.8360   65.0180   17.4200
    258      1   38.3110   48.2010   17.4575
    259      1   38.3210   59.6760   23.5580
    260      1   61.6820   45.8840    5.7280
    261      1   38.3050   55.3110   29.5435
    262      1   38.2950   41.1670   35.3760
    263      1   61.7150   39.9090   47.4555
    264      1   61.7190   44.8610    4.7020
    265      1   61.7290   42.8890    2.4675
    266      1   38.2610   40.4090   26.3780
    267      1   48.8260   37.3560   28.6670
    268      1   61.7520   58.4300   49.3340
    269      1   51.1790   48.7460    5.9855
    270      1   61.8090   42.9940   38.9890
    271      1   38.1820   50.3000   15.8225
    272      1   61.8350   49.2940   40.5830
    273      1   61.8350   40.5070   48.6910
    274      1   38.1480   43.2010   22.2335
    275      1   38.1300   58.0970   26.0220
    276      1   38.1250   57.2090   27.2280
    277      1   61.8810   58.7970   10.0115
    278      1   61.9110   56.7860   47.2975
    279      1   38.0500   41.7660   24.2675
    280      1   38.0500   39.9980   33.2225
    281      1   61.9590   51.2800   42.0690
    282      1   38.0410   48.6900   34.6410
    283      1   61.9690   42.0500    1.1540
    284      1   48.8020   49.1800   42.3835
    285      1   61.9870   53.2350   43.7025
    286      1   48.7730   49.5050   40.0055
    287      1   61.9280   55.0450   45.3490
    288      1   48.7980   44.9510   23.5155
    289      1   62.0880   59.5260    8.6695
    290      1   62.1360   51.4890    9.5450
    291      1   37.8460   56.6510   14.3825
    292      1   62.1730   40.1060   42.3910
    293      1   37.8230   49.8550   33.7310
    294      1   37.8230   55.0630   14.3265
    295      1   62.1950   60.0940    4.2920
    296      1   37.7280   59.9810   19.4985
    297      1   48.7770   51.5570   30.2495
    298      1   37.7650   59.6160   17.0550
    299      1   48.7750   38.2360   45.6390
    300      1   62.2550   39.9090   44.9915
    301      1   37.7200   43.6560   35.4770
    302      1   62.2810   60.0840    5.7520
    303      1   51.2290   49.3920   33.9090
    304      1   62.2900   40.9110   41.2045
    305      1   62.2970   56.4100   10.4145
    306      1   62.5090   45.3930   39.7875
    307      1   37.6530   58.7430   15.8870
    308      1   62.3550   50.3370    8.6615
    309      1   48.7640   54.5780    2.4055
    310      1   37.6270   46.2650   35.1720
    311      1   37.6180   42.3300   34.8435
    312      1   37.5930   40.1770   29.0405
    313      1   48.7590   55.7510   26.1520
    314      1   62.4140   57.5980    9.8420
    315      1   37.4980   59.6040   20.9800
    316      1   62.4520   46.5970   40.0430
    317      1   37.5370   40.1490   30.3660
    318      1   62.4730   53.7890   10.0710
    319      1   37.4810   52.0980   31.7670
    320      1   62.5410   40.4100   46.3340
    321      1   62.6130   44.8320    3.8135
    322      1   62.6140   43.3170   40.2480
    323      1   37.3800   52.8650   15.3800
    324      1   62.6250   59.0860    2.1295
    325      1   62.6300   48.0360    6.7920
    326      1   51.2650   54.4280   22.4445
    327      1   37.3470   53.1630   30.7455
    328      1   37.3150   58.6290   23.7905
    329      1   37.3070   47.4490   34.4015
    330      1   62.7050   40.5530   43.7710
    331      1   37.2730   41.0790   32.7095
    332      1   62.7290   46.9570    5.7995
    333      1   37.2700   57.3330   15.6935
    334      1   37.2510   46.6010   19.5435
    335      1   37.1950   59.0200   18.1375
    336      1   62.7770   58.7510    7.7765
    337      1   37.1940   44.9150   34.7585
    338      1   37.1800   55.2420   28.5600
    339      1   62.8210   43.9710    2.6600
    340      1   37.1730   54.2800   15.3280
    341      1   37.1660   57.8620   25.0015
    342      1   37.1630   41.2410   26.9615
    343      1   62.8370   52.6900    9.2785
    344      1   37.1630   45.5740   20.4595
    345      1   62.8690   55.0960    9.6395
    346      1   62.8690   59.1710    3.4480
    347      1   62.8780   48.6060   41.3230
    348      1   62.8830   41.6150   48.8725
    349      1   37.1110   56.1730   27.3775
    350      1   62.8990   42.2070   41.3575
    351      1   62.9050   57.8040    0.0285
    352      1   37.0920   48.5380   18.1460
    353      1   37.0620   50.7540   16.7225
    354      1   62.9630   42.3510    0.1340
    355      1   62.9690   44.6560   40.5445
    356      1   37.0300   42.2620   33.4965
    357      1   62.9780   58.9820    6.3320
    358      1   51.2990   47.6080   29.1315
    359      1   36.9990   41.0470   31.2850
    360      1   51.3030   48.7680   31.4400
    361      1   51.3030   64.6990   16.7000
    362      1   63.0460   57.5860    8.4220
    363      1   63.0620   56.2100   47.9070
    364      1   36.9330   41.1050   28.3895
    365      1   36.8970   43.9950   22.6965
    366      1   36.8950   42.5580   24.7910
    367      1   63.1250   50.6500   42.7965
    368      1   48.6870   58.9610    2.8315
    369      1   63.1460   47.1820   41.0955
    370      1   63.1580   54.5100   46.0675
    371      1   36.8150   49.7610   32.6755
    372      1   63.1890   52.6180   44.3675
    373      1   63.2290   58.0970    1.3710
    374      1   36.7160   52.1210   16.5310
    375      1   36.6990   56.6270   16.5665
    376      1   51.3310   50.5050   15.3400
    377      1   48.6660   47.9310   20.5160
    378      1   36.6450   58.4120   21.1300
    379      1   63.3510   50.4190    7.5660
    380      1   48.6640   38.3440   27.5475
    381      1   36.6050   47.6190   19.4515
    382      1   36.5880   50.8800   31.6900
    383      1   63.4160   41.5640   46.4245
    384      1   36.4820   58.0400   22.5275
    385      1   36.5510   55.0750   16.3610
    386      1   36.5420   45.1980   21.8350
    387      1   63.4590   41.8300   43.8900
    388      1   63.4780   56.6740   49.2510
    389      1   36.5100   42.3550   26.1610
    390      1   51.3490   50.0150   12.5135
    391      1   36.5080   50.0010   17.8515
    392      1   63.5030   49.2450   42.4600
    393      1   63.5040   49.2310    6.6565
    394      1   63.5360   42.6790   42.6635
    395      1   36.4610   44.7840   33.4485
    396      1   63.5800   55.2370    8.3625
    397      1   36.4740   57.4830   17.9845
    398      1   48.6420   48.8200   18.1830
    399      1   36.3990   43.4570   32.8200
    400      1   36.3990   47.2680   33.1675
    401      1   51.3610   52.3650   20.7445
    402      1   63.6370   54.9940   47.2825
    403      1   63.6380   42.1690   47.7275
    404      1   63.6390   56.5390    7.7180
    405      1   36.3530   53.0700   29.6890
    406      1   63.6490   58.1030    4.1070
    407      1   36.3320   43.7360   24.0060
    408      1   63.6720   57.9240    5.5310
    409      1   63.6720   52.8220    8.1110
    410      1   36.3120   54.1340   28.6045
    411      1   36.2900   42.1840   30.6145
    412      1   63.7110   44.9410   41.8150
    413      1   63.7200   51.2230   43.9535
    414      1   63.7230   53.2260   45.5980
    415      1   63.7430   47.1950    4.7530
    416      1   36.2510   56.6930   25.1055
    417      1   63.7530   46.1610    3.7635
    418      1   36.2020   55.8920   26.2755
    419      1   36.1810   42.1850   29.1190
    420      1   63.8260   46.3300   42.0090
    421      1   36.1250   48.4140   32.3515
    422      1   63.8840   42.3390   45.2010
    423      1   63.8640   43.4350    0.0490
    424      1   51.3890   58.5730    0.1845
    425      1   51.3940   55.0210   48.2300
    426      1   51.3960   51.0560   42.5600
    427      1   63.9670   51.7040    7.2820
    428      1   48.6030   56.0310    2.4145
    429      1   48.6020   50.8560    8.1340
    430      1   63.9930   44.0730   42.8245
    431      1   35.9860   45.9510   32.6280
    432      1   35.9850   52.5950   17.4890
    433      1   64.0190   54.0620    7.6270
    434      1   51.4050   47.9140    4.7160
    435      1   64.0650   56.6460    6.2715
    436      1   35.9330   43.4100   31.3625
    437      1   64.0700   57.0770    1.9680
    438      1   51.4070   45.9660    2.3715
    439      1   35.9120   54.1750   17.5360
    440      1   35.9080   56.5960   19.1395
    441      1   35.8480   57.0970   20.3475
    442      1   51.4210   40.6640   28.0455
    443      1   35.7770   56.9020   22.6540
    444      1   35.7560   50.7680   30.5860
    445      1   64.2460   56.9980    3.3855
    446      1   51.4260   55.7960   22.5575
    447      1   48.5710   45.9970   22.5000
    448      1   64.3040   48.2140   43.3420
    449      1   64.3070   55.8690   49.9435
    450      1   35.6860   43.3580   26.8735
    451      1   35.6720   50.5460   18.8115
    452      1   35.6600   48.2510   20.2785
    453      1   64.3430   49.3390    5.4585
    454      1   35.6550   51.8920   29.6065
    455      1   51.4350   53.0610   46.6395
    456      1   51.4360   63.8820   18.1115
    457      1   51.4380   50.8800   16.7590
    458      1   48.5620   54.6250   27.0865
    459      1   64.3780   46.8340   43.1645
    460      1   35.5960   56.1930   23.9055
    461      1   35.5880   46.1610   22.3430
    462      1   35.5870   43.3230   28.4030
    463      1   64.4160   43.4800   47.8005
    464      1   48.5570   36.2630   43.3540
    465      1   64.4560   46.2460    2.6355
    466      1   51.4470   43.3560   27.4925
    467      1   35.5300   44.6080   24.5720
    468      1   48.5530   52.4390   29.1700
    469      1   64.4820   48.3820    4.5480
    470      1   64.4860   43.7070   45.2800
    471      1   35.5100   53.8790   27.4040
    472      1   35.5030   54.9280   18.8775
    473      1   64.5180   44.5930   44.1305
    474      1   35.4690   54.7060   26.2570
    475      1   64.5340   54.2300   48.1275
    476      1   35.4560   51.9000   18.7015
    477      1   64.5650   55.5490    5.5360
    478      1   48.8330   50.0840   37.5710
    479      1   64.5770   55.9780    1.3185
    480      1   35.4220   44.5970   30.6550
    481      1   64.5790   54.2680    6.2470
    482      1   51.4580   49.7460   11.0975
    483      1   64.5620   44.0090   48.8605
    484      1   35.4130   45.8110   31.2925
    485      1   64.6060   50.4310   44.8825
    486      1   35.3920   56.2350   21.4025
    487      1   35.3900   48.2520   31.0825
    488      1   64.6730   51.8670    5.9675
    489      1   64.6760   52.3310   46.4580
    490      1   35.3120   49.7160   19.9325
    491      1   35.2980   47.4910   21.6350
    492      1   35.2690   44.4320   26.0695
    493      1   35.2480   49.4870   30.3020
    494      1   64.7680   55.7220    4.0745
    495      1   64.7690   45.8530   44.2305
    496      1   64.7910   54.6410   49.4450
    497      1   35.2060   45.7520   23.7985
    498      1   64.7960   44.2430   46.5765
    499      1   35.1850   44.5090   29.1920
    500      1   64.8310   48.9380   44.6535
    501      1   51.4890   60.7990   21.1125
    502      1   64.8960   50.6900    5.0535
    503      1   35.0910   46.9660   30.5630
    504      1   64.9380   53.1910    5.4170
    505      1   35.0570   51.6970   28.5130
    506      1   35.0320   54.0930   20.0015
    507      1   65.0090   52.8510   47.7725
    508      1   65.0280   50.9310   46.1565
    509      1   34.9710   52.5970   19.8700
    510      1   48.4970   42.5710   24.4440
    511      1   34.9530   52.6200   27.3950
    512      1   34.9530   54.8340   23.8545
    513      1   34.9350   54.8570   21.3285
    514      1   51.5090   51.8370   19.4665
    515      1   34.8750   54.1490   25.0360
    516      1   65.1530   45.3850   49.1180
    517      1   65.1630   45.9720    0.3245
    518      1   65.1610   54.7710    1.7895
    519      1   65.1620   47.5620    2.1170
    520      1   65.1770   54.5940    3.1280
    521      1   65.1790   46.4000   45.5230
    522      1   65.1990   48.6640    3.0395
    523      1   34.7980   45.6060   28.3965
    524      1   34.7830   45.4940   26.8040
    525      1   48.4710   35.5910   42.1870
    526      1   48.4770   62.1240    4.8805
    527      1   65.2390   45.6750   46.7195
    528      1   34.7370   50.4040   21.0620
    529      1   34.7130   46.8480   29.1305
    530      1   34.7090   49.3970   28.9240
    531      1   65.2970   47.9930   45.7220
    532      1   51.5310   50.0060   37.6965
    533      1   65.3150   53.9280    0.5765
    534      1   34.6770   54.1660   22.5290
    535      1   34.6750   48.2920   22.6245
    536      1   65.3320   53.3440    3.7595
    537      1   34.6470   46.8970   24.4010
    538      1   47.1930   65.5650   15.4925
    539      1   34.6190   50.4820   28.1145
    540      1   34.6120   51.9310   21.1095
    541      1   65.4000   50.8300    3.7115
    542      1   65.4190   46.1720   48.0150
    543      1   65.5010   47.3720    0.6845
    544      1   34.4860   46.8150   25.9090
    545      1   34.4730   48.0440   28.2715
    546      1   48.3260   65.6790   14.4500
    547      1   34.4610   49.7410   22.3975
    548      1   34.4590   51.9200   26.2160
    549      1   65.5530   50.0800   47.2210
    550      1   65.5590   51.9800   48.7520
    551      1   65.5640   49.7610    2.6085
    552      1   65.5720   52.1600    2.9685
    553      1   34.4220   52.6220   25.0040
    554      1   51.5580   50.5440   40.1690
    555      1   34.4140   52.7350   22.4415
    556      1   65.5960   48.6350   47.0165
    557      1   34.4030   48.0170   24.0800
    558      1   65.6090   52.6460    0.2385
    559      1   65.6790   47.6500   48.1590
    560      1   34.2680   50.5360   26.6350
    561      1   34.2610   48.1220   26.6430
    562      1   65.7500   48.2630   49.6220
    563      1   65.7510   50.6080   48.5020
    564      1   34.2370   51.8770   23.7350
    565      1   65.7710   51.8330    1.3510
    566      1   48.4180   34.5180   39.3460
    567      1   65.8360   50.3350    1.1225
    568      1   34.1560   50.3190   23.8840
    569      1   34.1460   49.5290   25.8155
    570      1   51.5860   61.9840   20.1865
    571      1   65.8650   49.7770   49.7605
    572      1   34.1270   49.3410   24.7610
    573      1   51.6000   65.6990   10.2385
    574      1   51.6110   36.5640   31.3455
    575      1   51.6150   46.2160   28.4350
    576      1   48.3720   53.7180    3.5495
    577      1   51.6440   65.0940    7.6895
    578      1   48.3300   65.6730   11.8375
    579      1   48.3300   34.2580   37.7965
    580      1   48.3150   47.6970   44.8500
    581      1   51.7030   63.9950    5.2710
    582      1   48.2850   46.7210   45.9855
    583      1   48.2830   51.1870   32.6160
    584      1   51.7520   52.5090   45.2580
    585      1   51.7830   49.4520   35.2065
    586      1   51.7900   56.4560   48.5965
    587      1   48.2100   41.8370   46.9310
    588      1   48.2040   50.6620    9.7000
    589      1   51.8060   35.8170   32.5975
    590      1   51.8100   47.7840   30.5020
    591      1   51.8120   53.6920   21.1390
    592      1   51.8180   48.9800    8.3375
    593      1   48.1600   63.6880    6.8540
    594      1   48.1490   43.6650   23.4425
    595      1   48.1170   60.8860    4.2670
    596      1   48.1140   34.3720   34.7800
    597      1   51.8980   48.7080   32.8030
    598      1   51.9010   54.3870   47.0545
    599      1   48.0940   40.4390   25.4675
    600      1   48.0820   64.9350    9.1925
    601      1   48.0730   63.4440   20.6515
    602      1   48.0670   61.5300   22.9030
    603      1   48.0550   34.6860   33.2860
    604      1   51.9640   62.5810    3.2055
    605      1   48.0160   40.4950   46.3400
    606      1   51.9850   34.6480   35.4730
    607      1   47.9990   51.8570   31.4355
    608      1   52.0170   48.3890    7.0510
    609      1   47.9830   44.3590   46.7195
    610      1   52.0180   39.6990   49.0170
    611      1   52.0200   65.7510   11.6275
    612      1   47.9770   60.3400   24.0170
    613      1   52.0270   34.3450   37.0325
    614      1   47.9710   52.1800    6.0890
    615      1   47.9190   57.9960   25.7040
    616      1   47.9150   56.9260   26.4040
    617      1   52.0910   34.6750   41.6455
    618      1   52.0910   34.3640   40.1145
    619      1   47.8950   64.1890   19.4755
    620      1   52.1150   65.2990   14.5485
    621      1   52.1320   35.7920   44.5040
    622      1   52.1730   57.9430   21.5505
    623      1   52.1820   36.5690   45.7860
    624      1   52.1510   38.6260   48.1660
    625      1   47.7740   35.7960   30.4885
    626      1   47.7710   38.1370   44.7605
    627      1   52.2320   64.7250   15.8960
    628      1   47.7630   56.7190    3.4215
    629      1   52.2530   60.9040    1.3510
    630      1   47.7430   41.4400   24.5045
    631      1   47.7360   45.6240   45.8760
    632      1   52.2640   38.6420   29.9125
    633      1   47.7250   65.6930   13.0800
    634      1   47.7170   46.8070   20.2620
    635      1   47.7140   51.7170    7.3930
    636      1   52.2980   46.6890    4.6330
    637      1   47.7010   58.1620    3.5665
    638      1   52.3060   43.6190   28.5470
    639      1   47.5410   49.2210   39.5990
    640      1   52.3090   45.6700    3.5565
    641      1   47.6800   36.5400   29.2220
    642      1   47.6740   49.1400   15.3080
    643      1   47.6670   62.6620    6.0210
    644      1   47.6660   50.6980   35.0895
    645      1   47.6610   45.8090   21.2815
    646      1   47.6600   53.6180   29.3180
    647      1   47.6540   54.6850   28.2940