 Lammps data file for helix_gr
 
        1342 atoms
           1 atom types
 
  -50.00000       150.0000     xlo xhi
  -50.00000       150.0000     ylo yhi
           0   50.00000     zlo zhi
 
  Atoms
 
      1      1   49.9860   32.7040   42.9510
      2      1   50.0700   30.2530   36.2100
      3      1   50.0910   32.8590   31.9520
      4      1   49.8610   35.0340   30.8005
      5      1   50.1540   31.1830   33.8710
      6      1   49.8440   65.4810   19.0330
      7      1   50.1940   30.2290   38.7095
      8      1   50.2020   40.6560   42.1435
      9      1   49.7730   66.8730   18.3630
     10      1   50.2340   69.0390    9.0380
     11      1   50.2550   36.4350   30.8630
     12      1   49.7140   60.4510   18.4015
     13      1   50.2930   40.2980   32.7965
     14      1   50.2950   41.7310   39.7535
     15      1   49.6630   58.5860    9.7455
     16      1   49.5320   33.9810   43.4960
     17      1   50.3610   59.0170   16.1145
     18      1   49.6220   68.9150   16.2230
     19      1   49.6170   62.7060    6.0335
     20      1   50.4020   36.2370   44.5175
     21      1   49.5860   67.5640    7.4435
     22      1   49.5400   62.6260   19.4905
     23      1   50.4700   39.0660   43.8770
     24      1   49.5280   58.0490   12.5215
     25      1   50.4740   58.4840   14.7585
     26      1   50.4800   39.1720   31.9005
     27      1   49.5170   59.2810    8.5390
     28      1   50.4910   60.3180    6.5335
     29      1   49.4650   69.5010   14.9730
     30      1   50.5550   65.4740    5.7630
     31      1   49.4350   38.8250   30.9380
     32      1   49.4160   58.0850   13.9655
     33      1   49.4140   61.4200    6.6150
     34      1   50.5990   34.7940   44.3780
     35      1   50.6200   69.6650   13.8920
     36      1   49.3760   31.2130   41.0355
     37      1   49.3650   41.7730   34.9285
     38      1   49.3570   37.4530   30.4145
     39      1   50.6490   59.2680    7.5980
     40      1   50.6510   34.0910   31.5360
     41      1   50.7180   58.0180   11.8405
     42      1   49.2800   41.9630   37.1875
     43      1   49.2740   65.3550    6.3850
     44      1   50.7270   41.9450   37.4550
     45      1   50.7620   63.1120   18.8055
     46      1   50.7940   67.2580   17.5975
     47      1   50.8030   30.1670   37.4735
     48      1   49.1880   68.3120    8.4150
     49      1   50.8130   62.8580    5.2635
     50      1   50.8250   68.3450   16.5455
     51      1   49.1660   61.3640   19.3680
     52      1   49.1590   38.2700   43.3820
     53      1   49.1470   58.7420   16.7520
     54      1   50.8550   32.1090   32.9780
     55      1   50.8570   30.7020   35.1145
     56      1   50.8770   40.2420   43.2895
     57      1   50.8790   58.0990   10.3705
     58      1   50.8870   41.4990   41.2025
     59      1   49.1040   36.8660   43.7350
     60      1   50.9000   41.3690   35.0375
     61      1   50.9240   67.6890    6.9715
     62      1   50.9580   64.4820   18.6950
     63      1   50.9800   60.8350   17.7685
     64      1   49.0170   32.1190   41.9740
     65      1   39.9910   49.5690   20.1165
     66      1   39.9770   35.9860   27.0405
     67      1   60.0260   50.1650   44.8410
     68      1   60.0620   51.3020   45.6370
     69      1   60.0700   59.9610   49.4430
     70      1   60.0750   61.3340    0.1865
     71      1   60.0790   33.3170   39.6935
     72      1   60.0900   51.3050    6.4860
     73      1   39.8850   62.7890   11.7130
     74      1   63.1810   39.7020    0.5565
     75      1   39.8820   49.5710   30.7690
     76      1   39.8700   57.7990   26.4980
     77      1   60.1320   66.4420    5.3755
     78      1   39.8210   56.4520   13.9575
     79      1   39.8200   66.9640   17.8930
     80      1   39.8120   43.7540   35.8690
     81      1   39.8100   41.4390   23.7885
     82      1   39.8060   54.1590   27.9740
     83      1   60.2180   65.7440   11.6290
     84      1   60.2210   63.8780    1.9305
     85      1   39.7740   66.0600   13.6340
     86      1   60.2290   64.8420    2.9185
     87      1   60.2840   66.8950    9.2360
     88      1   39.6870   39.2200   38.0745
     89      1   39.6760   51.4370   18.2310
     90      1   48.9660   41.4460   39.6350
     91      1   60.3450   45.4920   40.5005
     92      1   39.6540   66.9250   16.3920
     93      1   39.6030   60.2020   25.5250
     94      1   60.4040   33.3080   43.5410
     95      1   39.5820   57.6940   13.1880
     96      1   60.4620   64.3430   12.4645
     97      1   39.5630   33.3120   34.6565
     98      1   39.5590   33.1860   32.2160
     99      1   60.4680   53.8360    8.9235
    100      1   39.5230   41.6450   37.1405
    101      1   60.4810   59.1640   12.4980
    102      1   60.4830   39.9420   37.1930
    103      1   60.4890   57.4430   48.1775
    104      1   39.5050   47.7410   32.5830
    105      1   39.5030   39.2090   24.7490
    106      1   60.5040   39.5300    0.4225
    107      1   60.5060   36.1520   48.0305
    108      1   39.4870   33.8910   29.9405
    109      1   60.5210   40.8880    1.1200
    110      1   39.4670   52.4650   17.2320
    111      1   39.4360   46.1050   21.6195
    112      1   60.5660   48.8630    4.9425
    113      1   60.5720   33.2260   41.1195
    114      1   60.5740   46.5370   41.3345
    115      1   60.6140   35.1410   37.9480
    116      1   39.3120   60.6150   12.1925
    117      1   60.6180   37.2460   48.9415
    118      1   39.3770   62.4270   24.2175
    119      1   48.9370   59.3790   17.9860
    120      1   39.3630   51.8200   29.5535
    121      1   39.3600   56.5960   27.2535
    122      1   39.5040   63.8670   12.3315
    123      1   39.3230   37.0780   26.1505
    124      1   60.6800   52.7720    8.0855
    125      1   39.3110   65.8590   20.3755
    126      1   39.3090   35.2350   27.9375
    127      1   60.7010   47.6050    4.2755
    128      1   60.7090   56.1390   47.5120
    129      1   60.6770   43.6700    2.3645
    130      1   60.7570   57.9520   11.8575
    131      1   60.7810   44.9200    3.0145
    132      1   60.7920   66.6840    7.7945
    133      1   39.2000   64.3260   22.5215
    134      1   39.1830   47.2420   20.8425
    135      1   48.9160   41.1200   32.6825
    136      1   60.8360   34.3270   38.9920
    137      1   60.8460   41.2030   37.7960
    138      1   60.8530   37.5690   37.2205
    139      1   39.1250   48.8850   31.8345
    140      1   39.1020   50.8250   30.3660
    141      1   39.0560   61.7790   12.1940
    142      1   60.9060   48.7390   43.0475
    143      1   60.9380   65.8790   10.2890
    144      1   60.9210   61.6690   12.7540
    145      1   39.0390   59.0300   26.2675
    146      1   39.0200   36.4280   37.4010
    147      1   60.9880   53.5140   46.1445
    148      1   39.0120   35.1420   36.6740
    149      1   38.9790   54.5710   15.3565
    150      1   61.0450   49.9120   43.8535
    151      1   38.9130   66.2400   18.9500
    152      1   38.9110   45.8840   34.2830
    153      1   61.0910   52.2800   45.4005
    154      1   38.8630   43.7470   22.3640
    155      1   38.7830   61.3000   25.0250
    156      1   61.2300   50.5020    6.5555
    157      1   38.7680   49.4110   19.2235
    158      1   61.2620   34.7960   46.1345
    159      1   38.7290   55.7230   14.5675
    160      1   38.7080   65.5910   14.5435
    161      1   61.3060   43.7050   39.2315
    162      1   61.3210   62.0980    0.5570
    163      1   61.3260   65.7160    4.9455
    164      1   61.3330   59.6280   48.9640
    165      1   61.3380   55.6210   10.3585
    166      1   61.3640   38.8860   37.5195
    167      1   38.6330   66.0810   15.9045
    168      1   38.6320   54.2090   28.7445
    169      1   61.3770   60.2050   12.3680
    170      1   38.5850   50.4350   18.4140
    171      1   61.4150   65.0140    3.6400
    172      1   48.8580   40.1210   41.7775
    173      1   38.5670   41.3720   23.3870
    174      1   61.4350   36.4950   37.9665
    175      1   38.5650   63.3180   23.3980
    176      1   38.5630   64.9580   21.3950
    177      1   61.4530   63.2180    1.5125
    178      1   38.5410   47.0460   33.4720
    179      1   38.5020   44.9210   21.6430
    180      1   51.1500   42.0360   38.6625
    181      1   61.5140   44.9030   40.0020
    182      1   61.5390   49.2680    5.8495
    183      1   38.4440   34.1730   34.4600
    184      1   61.5730   58.2900   48.1870
    185      1   61.6040   54.4710    9.5855
    186      1   38.3790   38.9460   37.2980
    187      1   61.6270   35.7040   47.2465
    188      1   61.6380   34.0450   41.2025
    189      1   38.3260   53.1020   29.4815
    190      1   61.8940   38.9290    0.1950
    191      1   38.4490   63.5580   13.1730
    192      1   61.7140   34.0890   43.6590
    193      1   38.2810   58.3620   13.3310
    194      1   38.2200   34.0360   31.8120
    195      1   38.2180   34.3970   30.3275
    196      1   38.2080   43.8460   35.5860
    197      1   38.1860   59.9000   12.9825
    198      1   38.1660   52.6600   16.6605
    199      1   61.8370   34.7180   40.0400
    200      1   38.1600   35.0460   35.4415
    201      1   61.8460   46.7520    4.4835
    202      1   61.8600   45.4500    3.7885
    203      1   61.8880   47.2310   41.5770
    204      1   61.9030   37.7890   49.2755
    205      1   38.0900   41.4640   36.6390
    206      1   38.0890   37.5460   36.9375
    207      1   38.0880   39.2770   24.5755
    208      1   61.9150   42.8630    2.4765
    209      1   38.0750   56.5990   27.7780
    210      1   38.1320   62.3750   12.9860
    211      1   61.9550   55.8460   46.8430
    212      1   61.9550   65.8740    7.3760
    213      1   38.0020   64.4650   14.2225
    214      1   62.0090   65.0340    9.8795
    215      1   62.0310   48.3790   42.3475
    216      1   37.9660   37.3360   26.1355
    217      1   37.9630   42.6140   22.6025
    218      1   37.9340   47.2350   20.1635
    219      1   62.0680   52.2090    8.0380
    220      1   37.9250   35.6640   28.0855
    221      1   48.7920   30.3630   38.6420
    222      1   62.0870   57.7090   11.2620
    223      1   62.1170   54.5340   46.1075
    224      1   37.8740   53.8030   15.8670
    225      1   62.1330   41.4220   38.4520
    226      1   62.1930   34.7520   45.0065
    227      1   37.7900   49.6150   31.8620
    228      1   37.7840   65.6030   18.4775
    229      1   37.7540   45.0030   34.8310
    230      1   62.2560   50.7530   43.8635
    231      1   62.2650   51.9840   44.6150
    232      1   37.7250   50.8760   31.0525
    233      1   62.2920   65.4740    5.9250
    234      1   51.2290   64.2140    5.0545
    235      1   62.2950   51.0260    7.2800
    236      1   62.3140   34.4320   42.4025
    237      1   37.6820   55.3730   28.5255
    238      1   37.6730   48.3530   19.4155
    239      1   37.6700   65.4830   16.9330
    240      1   37.6270   58.9340   26.5675
    241      1   62.3950   61.4100    0.1410
    242      1   62.4120   60.3120   49.2910
    243      1   62.4240   42.7460   39.0475
    244      1   62.4260   56.4660   10.6005
    245      1   37.5620   40.4080   23.8330
    246      1   37.5290   40.0900   36.6435
    247      1   48.7520   63.9430    6.4465
    248      1   62.5180   65.2400    8.4080
    249      1   62.5350   36.7530   39.0010
    250      1   62.5980   60.0550   11.5600
    251      1   37.3960   35.2500   29.4225
    252      1   62.6210   39.0790   38.4250
    253      1   37.3710   56.2040   14.5825
    254      1   37.3690   61.1070   25.0795
    255      1   62.6370   64.2160    3.3190
    256      1   48.7340   66.4540    7.1050
    257      1   37.3310   42.6690   35.8725
    258      1   37.3230   38.4410   25.3055
    259      1   62.6810   63.3850    2.1795
    260      1   37.3160   64.5370   21.0140
    261      1   62.7150   35.7900   40.0300
    262      1   37.2540   50.5870   17.9125
    263      1   37.2350   36.6740   27.1725
    264      1   62.7680   63.7250   10.3600
    265      1   37.2090   61.8140   13.7125
    266      1   37.2170   63.0190   23.1845
    267      1   62.7960   48.5380    5.8420
    268      1   37.1730   57.7070   27.3230
    269      1   37.1700   44.9700   21.1895
    270      1   37.1620   36.0800   35.1005
    271      1   37.1610   57.6000   14.1155
    272      1   62.8550   57.9140   47.8030
    273      1   37.1410   47.4640   33.3220
    274      1   62.8920   45.3090   40.4225
    275      1   48.7110   42.0600   36.0310
    276      1   62.9150   36.4270   47.4435
    277      1   37.0830   37.2940   35.8695
    278      1   48.7070   30.9820   33.7110
    279      1   37.0940   60.5340   13.6470
    280      1   37.0440   51.7840   17.1580
    281      1   62.9670   47.2800    5.1430
    282      1   36.9990   63.9060   15.1265
    283      1   36.9940   53.0700   29.9510
    284      1   63.0260   54.0850    9.2055
    285      1   63.0270   40.3530   38.7545
    286      1   63.0310   58.7710   11.0945
    287      1   63.0370   46.5910   41.1635
    288      1   63.0610   56.6730   47.0600
    289      1   36.9350   64.8010   19.5220
    290      1   63.0800   37.4170   48.5615
    291      1   63.0850   44.6840    3.6920
    292      1   48.6910   32.5600   31.6010
    293      1   36.8540   46.1460   20.4870
    294      1   63.1660   43.4010    2.9685
    295      1   48.6820   64.9580   19.7950
    296      1   63.2110   38.0200   39.1600
    297      1   36.7770   59.9150   25.8800
    298      1   36.7710   48.8890   32.4605
    299      1   36.7430   64.4330   16.4765
    300      1   63.2780   52.8870    8.4965
    301      1   63.1880   61.2550   11.0405
    302      1   63.3400   49.0580   42.6440
    303      1   36.6550   51.8390   30.7095
    304      1   36.6150   61.9360   24.0595
    305      1   36.6050   63.6070   21.9270
    306      1   63.3980   35.4180   42.4700
    307      1   63.4050   64.5580    5.6080
    308      1   36.5900   42.8100   22.3485
    309      1   63.4100   54.0570   45.5530
    310      1   63.4260   50.2580   43.3545
    311      1   36.5730   54.2430   15.7765
    312      1   63.4310   35.6310   45.0925
    313      1   63.4560   52.7410   44.8040
    314      1   36.4840   36.0630   33.8735
    315      1   36.4680   62.6170   14.8330
    316      1   51.3540   66.6980    6.0110
    317      1   63.5560   61.6540    0.6945
    318      1   51.3560   59.9650   16.7165
    319      1   63.5630   64.2350    8.0950
    320      1   51.3560   32.2320   43.0875
    321      1   63.6000   36.1020   41.2600
    322      1   36.3450   39.7560   35.7380
    323      1   63.6620   64.0010    4.3070
    324      1   63.6800   50.4340    7.0475
    325      1   36.3190   55.4900   15.2805
    326      1   36.3070   55.2170   28.7915
    327      1   51.3700   40.6000   33.9410
    328      1   36.2970   48.4580   19.0990
    329      1   63.7140   62.5070    1.7770
    330      1   63.7240   43.1020   39.7730
    331      1   36.2570   45.2110   34.3480
    332      1   36.2390   35.8820   29.9000
    333      1   63.7770   63.3070    9.2090
    334      1   63.7820   56.2600    9.9635
    335      1   63.7880   36.3980   46.4170
    336      1   36.1880   38.3600   35.3245
    337      1   51.3820   36.9530   31.5825
    338      1   36.1580   43.9930   21.6565
    339      1   63.8660   59.7950   49.2375
    340      1   36.1300   40.6940   23.8300
    341      1   63.8720   49.1800    6.3150
    342      1   36.0620   49.6680   18.4050
    343      1   36.0400   35.8540   31.3430
    344      1   63.9840   44.4660   40.3775
    345      1   36.0140   46.5100   33.6500
    346      1   35.9930   59.8060   14.5225
    347      1   35.9890   58.3020   14.6180
    348      1   64.0370   35.9540   43.8125
    349      1   51.4060   37.1120   45.1150
    350      1   35.9400   42.3700   35.1900
    351      1   35.9380   64.0000   18.9425
    352      1   35.9320   37.2040   27.5665
    353      1   35.9260   54.0230   29.4800
    354      1   64.1130   63.9520    6.7460
    355      1   64.1140   55.0290    9.3420
    356      1   35.8590   63.7530   17.4410
    357      1   35.8390   38.7650   25.6240
    358      1   64.1890   58.6890   48.5015
    359      1   51.4190   38.5380   44.8280
    360      1   64.2080   40.6290   39.6850
    361      1   35.7870   57.4370   27.4035
    362      1   64.2330   38.2730   40.2440
    363      1   64.2420   38.2610   48.7725
    364      1   64.2420   46.6490    4.8545
    365      1   48.5750   30.2300   36.0865
    366      1   48.5720   63.5270   20.1395
    367      1   64.3090   58.5910   10.1785
    368      1   64.3450   45.3560    4.0985
    369      1   64.3540   39.3370   49.8520
    370      1   35.6450   41.9140   23.0725
    371      1   64.3560   61.0790    9.8765
    372      1   64.3650   47.0590   41.7065
    373      1   35.5910   52.2520   17.0810
    374      1   64.4310   42.8450    2.5625
    375      1   35.5660   37.0550   33.4075
    376      1   64.4430   37.3180   41.3155
    377      1   64.4520   41.6530    1.7385
    378      1   64.4660   56.1570   46.8050
    379      1   35.5150   40.8320   35.0515
    380      1   48.5500   41.7650   33.7190
    381      1   35.4980   61.9570   15.7505
    382      1   64.5150   60.5930    0.1645
    383      1   64.5250   48.3770   42.4165
    384      1   35.4640   36.8270   28.9570
    385      1   35.4570   46.3870   20.3250
    386      1   35.4460   59.5440   25.7500
    387      1   35.4280   62.9630   21.4620
    388      1   64.5760   54.7980   45.9930
    389      1   35.4120   53.5680   16.4930
    390      1   64.5950   62.1650    8.9365
    391      1   64.6130   42.0540   40.1080
    392      1   35.3810   49.0730   32.1840
    393      1   35.3480   38.1390   34.0895
    394      1   35.1650   44.5800   34.1335
    395      1   64.6780   50.9190   43.8090
    396      1   64.6840   52.5050    7.9810
    397      1   35.3130   56.1740   28.1245
    398      1   64.6990   52.1700   44.5070
    399      1   64.7200   57.3230    9.7090
    400      1   35.2740   61.4280   23.7195
    401      1   35.2730   39.9090   24.8255
    402      1   35.2530   36.8710   31.9305
    403      1   48.5220   34.6040   30.2705
    404      1   35.0420   43.1610   34.3895
    405      1   35.2020   51.5540   30.8050
    406      1   64.8060   62.9530    4.0985
    407      1   64.8120   62.2900    2.7085
    408      1   35.1780   38.1910   26.8480
    409      1   35.1770   60.5420   15.4910
    410      1   64.8240   39.6070   40.4395
    411      1   35.1610   47.5800   19.6850
    412      1   35.1460   62.5660   17.0085
    413      1   35.1420   63.0920   19.9695
    414      1   64.8590   51.2350    7.2900
    415      1   35.1190   56.1980   15.6550
    416      1   64.8820   37.3020   46.4320
    417      1   64.9540   59.7940    9.5330
    418      1   34.9990   57.6130   15.4595
    419      1   65.0100   37.0360   43.8140
    420      1   65.0900   62.8270    6.5490
    421      1   34.9090   58.2940   26.5180
    422      1   65.1700   48.6840    5.8705
    423      1   65.1720   38.1750   47.6690
    424      1   65.2140   37.7140   42.5270
    425      1   34.7690   44.3930   21.6645
    426      1   65.2310   44.7950   41.1620
    427      1   48.4750   67.6300   18.2920
    428      1   51.5290   38.3190   32.0965
    429      1   34.6990   61.8680   22.3795
    430      1   34.6960   60.2280   24.6100
    431      1   34.6760   50.1860   31.3790
    432      1   34.6690   50.1090   18.4315
    433      1   65.3570   61.9670    7.6250
    434      1   65.3680   54.8010    8.6400
    435      1   65.3690   47.4110    5.1090
    436      1   34.6230   46.7390   32.9940
    437      1   65.4230   57.9770   48.4485
    438      1   65.4670   46.1060   41.7500
    439      1   34.5120   53.6820   29.4430
    440      1   65.4990   37.6170   45.1090
    441      1   34.4750   37.6920   29.6530
    442      1   65.5250   62.3850    5.2020
    443      1   34.4630   37.7630   31.1835
    444      1   34.4620   40.4680   33.8980
    445      1   34.4530   39.1710   33.3500
    446      1   65.5710   56.7400   47.5355
    447      1   65.5850   44.8590    3.5195
    448      1   65.5890   43.6310    2.7065
    449      1   34.4090   51.4970   17.8620
    450      1   65.6030   40.2430   49.8555
    451      1   65.6110   60.3530    0.8410
    452      1   34.3850   45.6110   21.0360
    453      1   34.3700   61.8570   17.9690
    454      1   65.6400   41.3290    0.8655
    455      1   34.3170   59.8650   16.3695
    456      1   65.6850   53.4740    7.9885
    457      1   34.3040   47.7980   32.4100
    458      1   34.2880   62.1360   19.4285
    459      1   65.7220   42.4240   41.0915
    460      1   34.2530   42.3670   23.3175
    461      1   65.7530   61.1960    2.3020
    462      1   48.4250   39.7970   30.7150
    463      1   65.7690   39.9140   41.5860
    464      1   65.7910   48.8140   43.0630
    465      1   48.8380   69.7320   12.0450
    466      1   51.5830   60.4130    5.5770
    467      1   34.1580   54.1920   16.8720
    468      1   65.8440   54.0610   45.9060
    469      1   34.1430   58.4410   16.2425
    470      1   65.8580   50.1550   43.7450
    471      1   34.1280   52.4440   30.0095
    472      1   65.8800   57.2180    8.7370
    473      1   34.1200   55.5750   16.5300
    474      1   65.9180   59.6760    8.3405
    475      1   51.5920   62.1610   18.0505
    476      1   65.9210   52.7490   45.1685
    477      1   65.9480   38.9760   42.6020
    478      1   34.0340   44.8620   33.3065
    479      1   34.0290   42.8380   33.5905
    480      1   34.0260   38.9370   27.3975
    481      1   33.9760   40.5150   25.2245
    482      1   33.9320   55.7820   27.8735
    483      1   66.0800   43.8010   41.5405
    484      1   66.0810   60.7640    7.3725
    485      1   33.8800   38.9800   31.9210
    486      1   66.1380   50.8630    6.6085
    487      1   33.8110   60.4870   17.7680
    488      1   33.8390   48.1240   19.7840
    489      1   66.1680   39.1710   47.7130
    490      1   33.8100   43.6640   22.6020
    491      1   66.1940   55.9260    8.2895
    492      1   51.6250   41.6480   36.2910
    493      1   66.2560   49.5660    5.9215
    494      1   66.2600   41.3070   41.8145
    495      1   33.7040   41.4710   33.1580
    496      1   33.7010   61.0270   21.9130
    497      1   33.6890   38.7940   28.8780
    498      1   66.3130   38.7350   45.2210
    499      1   33.6720   45.8940   32.7365
    500      1   33.6630   57.8080   26.1350
    501      1   48.3650   58.1830   11.8050
    502      1   66.4100   61.1770    4.9760
    503      1   33.5820   49.4430   19.2250
    504      1   33.5080   61.0990   20.4245
    505      1   66.4320   58.3680    8.0135
    506      1   33.5550   59.5720   24.1785
    507      1   66.4870   58.2640   49.3290
    508      1   48.3530   41.7610   38.4195
    509      1   66.3770   59.3860    0.5030
    510      1   66.4870   40.1640   48.8200
    511      1   33.5130   54.4840   28.5035
    512      1   33.4400   41.7530   24.4740
    513      1   33.4070   43.8460   32.8890
    514      1   66.5950   39.4050   43.8965
    515      1   66.6070   47.0480    4.3815
    516      1   33.3890   40.1170   26.5725
    517      1   48.3390   30.8920   39.8650
    518      1   48.3390   58.6390   10.4990
    519      1   51.6620   69.0940    8.7030
    520      1   66.6290   46.4950   42.6440
    521      1   66.6310   60.6520    3.4660
    522      1   33.3430   49.7140   31.0735
    523      1   66.6930   39.4160   46.5875
    524      1   66.6990   60.4160    6.0700
    525      1   33.2560   57.8040   17.4020
    526      1   66.7200   45.7890    3.5475
    527      1   66.7230   43.3920    1.8335
    528      1   66.7390   55.8500   47.6035
    529      1   66.7530   42.2820    0.8160
    530      1   33.2140   52.1620   18.2200
    531      1   66.7930   47.8850   43.2475
    532      1   66.8270   53.2640    7.1205
    533      1   33.1660   48.1980   31.6340
    534      1   33.1600   56.5590   26.7700
    535      1   33.1550   56.4840   17.4020
    536      1   33.1430   53.5420   17.8185
    537      1   33.1350   59.9310   22.8220
    538      1   33.1220   46.1930   21.3055
    539      1   33.1090   40.0180   31.0575
    540      1   66.9010   54.5300   46.7855
    541      1   48.8030   69.4220   10.6845
    542      1   33.0600   58.4020   24.9360
    543      1   66.9920   50.5850   44.5870
    544      1   51.7010   58.5230   14.1715
    545      1   51.7020   61.6670    4.8885
    546      1   67.0330   51.9280   45.3120
    547      1   48.2930   68.5850   17.2040
    548      1   32.9230   41.2130   31.7465
    549      1   67.0810   41.7020   42.9865
    550      1   67.0920   44.0860   42.6295
    551      1   32.9050   39.9040   29.5455
    552      1   67.1050   51.9220    6.4315
    553      1   32.8720   47.5130   20.6935
    554      1   32.8270   51.8460   29.6430
    555      1   67.2030   55.7090    7.2020
    556      1   67.2270   58.2590    6.7370
    557      1   67.2350   40.7390   44.0525
    558      1   67.3300   59.2200    5.7610
    559      1   32.6200   44.2840   23.0555
    560      1   67.3190   58.8880    1.6115
    561      1   67.3980   59.4000    3.0920
    562      1   67.4060   45.4690   43.1450
    563      1   67.4060   41.2670   48.7440
    564      1   67.4760   57.2880   49.6135
    565      1   32.5680   50.4830   30.1335
    566      1   48.2570   61.2910    7.4305
    567      1   32.5630   46.2250   31.6315
    568      1   67.4510   49.3140    4.9920
    569      1   67.5190   54.3730    6.6845
    570      1   32.4550   41.0350   27.2865
    571      1   67.5550   43.1040   43.3525
    572      1   32.4420   43.5770   31.6910
    573      1   32.4410   50.2300   19.6375
    574      1   32.4200   47.6250   31.0935
    575      1   67.6020   48.0690    4.2135
    576      1   32.3730   55.9050   18.4240
    577      1   67.6450   56.1050   48.6810
    578      1   67.6350   42.3000   49.7305
    579      1   32.3610   58.9500   22.1025
    580      1   32.3490   42.5650   25.0575
    581      1   32.3340   51.5620   19.2025
    582      1   32.3340   42.2500   31.0955
    583      1   32.3230   54.3450   18.4985
    584      1   67.6830   56.8920    6.3725
    585      1   32.3160   45.5950   22.3875
    586      1   32.3160   53.8010   28.0115
    587      1   32.3080   40.9660   28.7785
    588      1   67.7550   44.4400    1.5680
    589      1   67.7560   45.6090    2.4690
    590      1   48.2220   38.9110   42.4285
    591      1   67.8080   58.7300    4.2930
    592      1   67.8120   48.2290   44.2995
    593      1   48.2170   57.8580   14.6515
    594      1   32.1020   57.5560   24.2940
    595      1   32.0650   55.8230   26.1690
    596      1   67.9430   49.5880   44.9570
    597      1   48.2020   60.2010    8.2895
    598      1   32.0150   52.4000   28.5845
    599      1   67.9860   53.5770   47.1635
    600      1   31.9710   43.8000   24.3545
    601      1   31.9600   44.9240   31.0035
    602      1   68.0400   52.2870   46.4275
    603      1   51.8050   34.2780   44.7530
    604      1   31.9500   42.2450   26.5220
    605      1   31.9220   42.1180   29.6400
    606      1   31.9090   56.8880   19.6580
    607      1   68.1110   51.7120    5.3155
    608      1   48.1850   37.0540   29.6430
    609      1   48.1850   40.9050   31.5645
    610      1   31.8230   57.7460   22.8175
    611      1   31.8140   48.3420   21.2320
    612      1   68.2220   43.3040   44.7495
    613      1   68.2690   45.7640   44.3845
    614      1   68.3190   56.5680    5.0970
    615      1   51.8320   58.0930   12.6975
    616      1   68.3380   50.4010    4.5630
    617      1   68.3410   57.4450    3.9935
    618      1   31.6410   54.3620   26.7810
    619      1   31.6400   49.7410   20.7355
    620      1   31.6180   49.6920   29.4905
    621      1   31.6110   56.2270   24.8925
    622      1   31.6050   53.8670   19.6025
    623      1   68.4040   54.2060    5.4115
    624      1   68.4360   43.5260   49.2935
    625      1   31.5470   48.1150   29.9305
    626      1   31.5440   52.4630   19.9050
    627      1   68.2620   42.4980   45.6435
    628      1   68.5100   47.1340   44.9360
    629      1   68.5740   55.0870   49.1670
    630      1   48.1480   40.6890   40.6020
    631      1   31.4380   56.2450   20.5935
    632      1   68.5750   47.8490    2.9640
    633      1   68.3560   42.5810   47.1890
    634      1   68.6030   46.6670    2.1500
    635      1   31.3870   46.3990   23.0465
    636      1   31.3830   43.3670   28.7870
    637      1   68.6220   44.5810   45.2660
    638      1   31.3150   43.3650   27.2760
    639      1   31.3140   44.8460   29.5555
    640      1   68.7650   56.4760    2.7835
    641      1   31.3040   56.6710   22.0040
    642      1   68.7140   53.7980   48.3470
    643      1   68.7180   52.8860    4.7315
    644      1   68.7240   55.2180    4.6535
    645      1   31.2450   54.7740   20.3540
    646      1   68.7690   49.8950   46.1385
    647      1   68.7820   43.6390   47.7710