 Lammps data file for helix_gr
 
        2256 atoms
           1 atom types
 
  -50.00000       150.0000     xlo xhi
  -50.00000       150.0000     ylo yhi
           0   50.00000     zlo zhi
 
  Atoms
 
      1      1   50.0310   58.9510   22.9845
      2      1   50.0380   72.8720    7.6385
      3      1   50.0480   68.8020   22.1505
      4      1   50.0660   43.2430   46.4860
      5      1   50.0670   73.8480   11.2870
      6      1   49.8990   27.4040   32.0605
      7      1   49.8850   54.0530   10.9340
      8      1   50.1280   57.5280    2.7255
      9      1   49.8530   62.2240   24.0445
     10      1   50.1520   30.1780   46.4440
     11      1   50.1600   56.4890    3.7120
     12      1   50.1620   28.4330   44.6005
     13      1   50.1680   53.9560   12.2980
     14      1   50.1700   54.2060   15.3730
     15      1   50.1880   69.3740    3.1835
     16      1   50.1900   62.4080    0.9285
     17      1   49.7900   73.8440   13.7715
     18      1   50.2150   61.1350   23.6810
     19      1   50.2190   54.3290    8.4440
     20      1   50.2270   54.5800   16.9215
     21      1   50.2450   44.4970   30.6950
     22      1   50.2470   26.2690   35.4615
     23      1   49.7340   44.4890   44.2720
     24      1   50.2660   27.1190   42.4010
     25      1   49.7310   34.8760   48.6190
     26      1   49.7230   40.7600   47.9800
     27      1   49.7120   67.2290    2.0705
     28      1   50.2990   66.1150    1.3640
     29      1   50.3080   38.6050   26.3465
     30      1   49.6810   45.4200   41.7835
     31      1   50.3200   45.9760   39.3165
     32      1   49.6720   64.8250    1.3630
     33      1   49.6690   34.6720   26.1240
     34      1   50.3330   45.3210   43.2130
     35      1   49.6590   31.9200   27.2260
     36      1   50.3490   45.8970   36.2010
     37      1   49.6500   73.3640   16.1635
     38      1   50.3640   56.6460   20.8405
     39      1   50.3900   37.2710   49.2265
     40      1   50.3910   67.5620   22.7305
     41      1   50.3970   32.2100   47.9590
     42      1   50.4000   26.3510   40.0930
     43      1   49.5960   59.9810   23.8050
     44      1   49.5950   65.4780   23.8695
     45      1   49.5890   36.1800   25.8040
     46      1   49.5850   39.4140   48.4020
     47      1   50.4200   38.8350   49.1390
     48      1   50.4340   44.3230   45.5770
     49      1   50.4360   55.8130   19.6020
     50      1   49.5610   30.6940   28.0095
     51      1   49.5590   41.3880   26.6975
     52      1   49.5490   73.5960    9.9465
     53      1   49.5400   26.8100   33.2840
     54      1   49.5340   43.3640   28.1520
     55      1   50.4690   29.1090   29.8135
     56      1   49.5300   36.3790   48.6860
     57      1   50.4760   73.3860    8.8565
     58      1   50.5040   59.9160    1.1030
     59      1   50.5060   26.0900   37.7720
     60      1   50.5120   70.6680   20.4095
     61      1   50.5160   44.9600   32.0950
     62      1   50.5190   45.6850   34.8400
     63      1   50.5220   68.2820    2.2680
     64      1   49.4590   45.9450   34.2060
     65      1   50.5440   71.6680    5.4175
     66      1   49.4410   55.5840    5.9575
     67      1   50.5700   37.1240   26.3515
     68      1   49.4230   54.9130   19.3375
     69      1   50.5770   54.7840    5.9580
     70      1   50.5800   26.6130   34.2280
     71      1   50.5800   45.9620   40.7785
     72      1   49.4170   72.4300   18.3985
     73      1   49.4020   45.7380   32.7155
     74      1   49.4010   66.8850   23.4940
     75      1   49.3490   56.4590   21.8950
     76      1   50.6610   63.6990    0.6380
     77      1   50.6890   30.2030   28.8675
     78      1   49.3090   59.7140    2.1385
     79      1   50.6940   40.8470   27.4145
     80      1   50.7000   42.8380   28.9215
     81      1   49.2770   56.4470    4.8045
     82      1   50.7520   41.7240   48.4265
     83      1   50.7670   64.7570   23.4080
     84      1   49.2220   71.2300    5.3335
     85      1   49.2210   46.0430   37.0805
     86      1   49.2090   57.4480   22.9635
     87      1   49.1980   54.3420   17.9845
     88      1   49.1920   58.5660    2.8535
     89      1   49.1800   73.8950   12.4060
     90      1   49.1570   39.1330   25.6145
     91      1   50.8440   63.1380   23.4615
     92      1   50.8450   34.1180   26.8765
     93      1   50.8560   53.9330    9.8350
     94      1   50.8640   43.0100   47.6670
     95      1   50.8770   29.0890   45.6575
     96      1   49.1170   28.5570   29.9820
     97      1   50.8870   32.7140   27.3900
     98      1   49.1060   32.6590   47.5945
     99      1   49.1060   71.0560   20.5020
    100      1   49.0860   45.8800   38.6225
    101      1   50.9220   30.9640   47.3695
    102      1   49.0600   26.1540   37.5700
    103      1   49.0640   42.6880   26.9795
    104      1   50.9450   69.5120   21.2445
    105      1   49.0500   45.0910   29.9030
    106      1   50.9680   72.0730   18.4320
    107      1   50.9790   27.6190   43.6070
    108      1   39.9960   34.4720   23.0585
    109      1   60.0070   37.8400    4.0800
    110      1   60.0240   71.3680   11.5930
    111      1   60.0320   71.3710    6.3520
    112      1   51.0040   54.1600    7.2270
    113      1   41.0790   68.8860   23.8420
    114      1   39.9500   55.1200   32.6070
    115      1   39.9410   62.6700    6.8815
    116      1   39.9390   28.8230   30.6760
    117      1   60.0650   46.2870   35.9480
    118      1   39.9320   70.3800   11.0020
    119      1   39.9290   69.5180    9.8120
    120      1   39.9290   71.6940   15.9810
    121      1   39.9080   48.2530   15.2605
    122      1   51.0110   72.5250    6.6275
    123      1   60.1150   68.2950    0.6375
    124      1   39.8770   45.9970   39.2590
    125      1   60.1400   45.1520   35.1100
    126      1   39.8440   62.1400   29.1160
    127      1   60.1610   64.3880   47.2395
    128      1   60.1780   56.5170   16.0015
    129      1   60.1790   53.8540   41.6040
    130      1   60.2110   66.5270   48.8900
    131      1   60.2210   48.3780    9.8880
    132      1   39.7680   40.4100   19.5535
    133      1   39.7620   49.3860   14.3675
    134      1   39.7600   41.8730   41.8365
    135      1   48.9740   73.7070   14.8545
    136      1   51.0270   34.4000   49.1675
    137      1   39.7140   28.5760   32.0815
    138      1   60.3080   42.5630    6.5245
    139      1   60.3320   64.8110   17.7800
    140      1   39.6590   69.2940   23.0190
    141      1   39.6520   32.3170   25.0020
    142      1   60.3490   66.2160   17.3420
    143      1   60.3530   55.3110   15.1925
    144      1   60.3560   42.6950   33.6080
    145      1   39.6330   71.3150   18.3225
    146      1   60.3780   49.5270   10.7760
    147      1   39.6180   53.0150   34.0045
    148      1   60.3840   70.1830   13.9025
    149      1   39.6140   70.5150   20.7560
    150      1   60.4180   41.3760   33.0030
    151      1   48.9580   53.8340   14.7715
    152      1   39.5740   43.9980   40.6130
    153      1   39.5650   35.6410   42.7860
    154      1   60.4360   70.4170    4.0330
    155      1   39.5600   51.6420   12.5630
    156      1   39.5430   30.9900   40.3605
    157      1   60.4600   32.6360    0.3225
    158      1   60.4680   35.6580    2.8115
    159      1   60.4840   51.8490   12.6135
    160      1   60.4860   52.9820   13.4805
    161      1   60.4970   38.5920   32.2460
    162      1   60.5170   29.8310   36.2385
    163      1   60.5440   51.5620   39.9580
    164      1   39.4470   31.4090   26.0925
    165      1   39.4420   63.3300   28.4920
    166      1   39.4380   50.9770   35.4725
    167      1   51.0570   57.5760    1.6920
    168      1   48.9430   42.3910   46.1590
    169      1   39.4210   28.6160   34.9730
    170      1   39.4080   48.9270   37.0185
    171      1   39.3990   52.7540   11.6985
    172      1   51.0630   61.2850    0.4310
    173      1   39.3730   43.7210   17.7515
    174      1   39.3700   30.1520   39.1470
    175      1   60.6310   37.1070   32.2200
    176      1   60.6320   43.7610    7.2550
    177      1   39.3440   28.9410   36.4320
    178      1   60.6610   57.3400   43.2920
    179      1   39.3280   37.7210   20.8855
    180      1   39.3280   59.9340   30.4045
    181      1   39.3240   47.0050   38.4960
    182      1   60.7110   71.3740    9.1825
    183      1   60.7150   69.0440    1.7780
    184      1   48.9280   53.8860   13.2195
    185      1   39.2670   40.3900   42.1820
    186      1   60.7500   31.1000   48.4240
    187      1   39.2420   33.1760   41.7600
    188      1   39.2400   67.3680    8.5665
    189      1   60.7730   30.7860   35.1700
    190      1   60.7750   50.4910   39.1255
    191      1   60.7790   62.1740   45.7625
    192      1   48.9200   26.4620   40.0335
    193      1   39.1860   37.1980   42.6700
    194      1   39.1730   70.8560   13.2610
    195      1   60.8400   67.4100   49.8090
    196      1   48.9160   26.1740   36.0100
    197      1   60.8490   65.5480   48.0850
    198      1   60.8750   34.2890   32.8470
    199      1   39.1230   42.4510   18.3335
    200      1   60.8810   32.9990   33.4470
    201      1   39.1170   55.0710   10.0630
    202      1   60.9180   29.0720   38.6800
    203      1   60.9200   29.8230   46.1210
    204      1   39.0800   29.9810   28.5365
    205      1   39.0640   64.9110    7.6590
    206      1   39.0590   46.1590   16.2870
    207      1   60.9500   71.0220   10.7455
    208      1   60.9500   40.2060    5.5350
    209      1   39.0490   36.4420   21.6595
    210      1   60.9700   33.6760    1.2490
    211      1   60.9730   63.3900   46.5205
    212      1   60.9770   58.8570   16.8180
    213      1   60.9800   56.0990   42.5370
    214      1   39.0070   56.3330    9.3430
    215      1   39.0040   68.4310    9.5970
    216      1   38.9540   70.1760   11.9440
    217      1   38.9460   44.9800   39.8570
    218      1   38.9080   42.7690   41.0840
    219      1   38.9000   57.7650   31.6180
    220      1   38.8980   29.4720   29.9155
    221      1   51.1120   58.8410   22.0345
    222      1   61.1200   46.1710    8.8035
    223      1   38.8650   61.2460   29.7795
    224      1   38.8450   59.0300    8.1800
    225      1   61.1570   67.9110   15.6960
    226      1   38.8300   60.4820    7.7920
    227      1   48.8820   54.8990    8.2595
    228      1   61.1800   28.8600   41.1675
    229      1   38.8150   63.4840    7.6140
    230      1   61.1950   29.1230   43.6890
    231      1   38.8000   47.3430   15.4690
    232      1   38.7970   67.3810   25.1380
    233      1   38.7840   34.5610   41.9625
    234      1   51.1220   26.6190   41.2780
    235      1   48.8770   69.3360    3.7215
    236      1   61.2300   48.1850   37.3580
    237      1   38.7480   32.2350   40.7205
    238      1   61.2540   57.4840   16.1440
    239      1   61.2670   63.9040   17.3070
    240      1   38.7160   65.4970   26.9375
    241      1   61.2910   47.4240    9.6290
    242      1   48.8690   40.5580   25.7280
    243      1   61.3530   41.4670    6.2895
    244      1   61.3550   66.6220   16.3590
    245      1   38.6430   71.0270   15.7290
    246      1   38.6420   34.1370   23.3815
    247      1   61.3640   32.0580   49.4780
    248      1   61.3660   46.9700   36.4955
    249      1   38.6200   55.5700   32.8835
    250      1   61.3850   29.8390   37.4575
    251      1   61.3930   70.8670    6.7725
    252      1   61.4100   38.0100    4.3925
    253      1   51.1410   55.4280    3.6040
    254      1   51.1420   73.1320   16.2720
    255      1   61.4480   59.5880   44.2585
    256      1   61.4790   53.6170   40.9725
    257      1   38.5170   66.0750    8.4940
    258      1   38.5030   33.1050   24.4080
    259      1   61.5180   44.5200   34.9705
    260      1   51.1530   26.1900   36.5120
    261      1   38.4660   39.8140   19.5465
    262      1   38.4580   49.6340   13.8470
    263      1   61.5530   30.6800   47.3425
    264      1   38.4470   68.9240   22.9835
    265      1   51.1560   39.4890   27.1775
    266      1   61.5900   43.2660   34.3245
    267      1   38.3920   29.1320   32.7265
    268      1   61.6190   40.5940   33.2840
    269      1   61.6420   69.3580   13.5775
    270      1   61.6460   39.2410   32.9905
    271      1   38.3410   59.0320   31.0910
    272      1   61.6820   52.4600   40.2165
    273      1   38.3080   50.8370   13.0075
    274      1   61.7130   70.8380    8.2430
    275      1   38.2770   70.5790   14.3810
    276      1   38.2760   70.7310   18.1275
    277      1   61.7290   29.3040   39.9165
    278      1   38.2710   29.1930   34.1600
    279      1   38.2630   30.5630   38.3625
    280      1   61.7500   29.6950   44.9065
    281      1   51.1750   43.4800   30.1485
    282      1   38.2450   53.4070   34.2350
    283      1   61.7630   49.8600   11.3210
    284      1   48.8240   27.7320   31.1320
    285      1   38.2320   29.9040   37.0225
    286      1   61.7880   58.3190   43.5130
    287      1   61.7930   70.0480    4.4240
    288      1   61.7970   54.8580   14.6065
    289      1   38.2020   38.4880   20.3020
    290      1   61.8410   61.4620   16.9305
    291      1   38.1940   70.0230   20.6070
    292      1   61.8210   51.1090   12.1870
    293      1   38.1520   66.4410   25.9690
    294      1   38.1490   44.0730   17.2010
    295      1   61.8510   53.6100   13.8175
    296      1   48.8140   44.6000   28.5875
    297      1   61.8580   31.7280   35.3230
    298      1   38.1210   31.4010   26.6385
    299      1   61.8870   32.7910   34.4650
    300      1   61.8960   39.2020    5.1445
    301      1   62.1020   67.2200   49.8225
    302      1   61.9100   35.8640    2.9525
    303      1   61.9230   29.2940   42.4165
    304      1   51.1930   26.1620   38.9175
    305      1   61.9400   60.1250   16.7520
    306      1   38.0530   56.8750   32.3000
    307      1   38.0430   51.2320   35.6455
    308      1   61.9810   43.9620    7.7780
    309      1   38.0170   53.2710   11.3915
    310      1   48.7990   62.9530   24.7195
    311      1   37.9850   68.3650   10.6085
    312      1   37.9830   30.7510   27.8475
    313      1   62.0280   70.2170   11.2215
    314      1   62.0320   68.2030   14.5430
    315      1   37.9630   63.5650   28.3560
    316      1   62.0420   68.8350    2.1355
    317      1   37.9460   45.2220   16.5120
    318      1   37.9330   69.2480   11.7655
    319      1   37.9250   68.0800   23.9685
    320      1   62.0830   50.1330   38.6285
    321      1   37.8900   49.1320   37.0400
    322      1   37.8840   54.4630   10.6890
    323      1   37.8580   37.3480   41.7815
    324      1   37.8480   39.9790   41.5895
    325      1   37.8310   62.8800    8.2325
    326      1   62.2050   61.6060   45.3395
    327      1   62.2050   45.1930    8.5170
    328      1   37.7830   29.7900   30.4980
    329      1   37.7740   70.5550   16.8520
    330      1   37.7560   47.1330   38.3270
    331      1   37.7450   61.2740    8.2695
    332      1   62.2580   65.4710   48.1950
    333      1   37.7330   57.0230    9.4305
    334      1   48.7710   34.0060   47.8950
    335      1   37.6990   54.6460   33.6295
    336      1   37.6960   34.9890   41.2480
    337      1   62.3080   70.2260    5.8185
    338      1   48.7680   73.0600   17.2230
    339      1   37.6750   64.6030   27.5415
    340      1   37.6670   58.4270    8.9290
    341      1   62.3370   64.3170   16.4570
    342      1   62.3380   55.8160   42.0275
    343      1   37.6530   35.9980   21.9785
    344      1   62.3480   69.4680   12.4165
    345      1   37.6510   41.9630   18.2555
    346      1   62.3520   48.9170   37.8285
    347      1   62.3570   37.0640    3.7935
    348      1   48.7640   30.5770   46.1860
    349      1   62.4080   34.0050    1.2755
    350      1   62.4180   65.6380   15.9400
    351      1   37.5690   44.9200   39.5720
    352      1   37.5680   32.6800   39.8965
    353      1   62.4420   47.7420   10.0915
    354      1   37.5550   69.2750   21.7250
    355      1   37.5530   42.5040   40.6885
    356      1   37.5150   70.1160   19.2905
    357      1   37.5020   29.6970   31.9035
    358      1   37.4850   34.9330   22.8705
    359      1   37.4810   61.4980   29.7560
    360      1   37.4680   47.6590   14.9675
    361      1   62.5400   63.4730   46.6095
    362      1   62.5550   30.7340   37.5405
    363      1   37.4200   52.4810   34.9530
    364      1   62.5970   57.2660   15.5145
    365      1   37.4880   66.0020    9.3680
    366      1   62.6130   69.2870    3.4760
    367      1   62.6160   60.4950   44.6470
    368      1   62.6200   46.4290   36.2890
    369      1   62.6360   54.5820   41.2790
    370      1   48.7360   62.0880    1.8615
    371      1   62.8820   66.2610   49.0135
    372      1   37.3040   40.7480   18.8945
    373      1   62.7030   45.1170   35.6050
    374      1   37.2840   30.3210   36.2290
    375      1   37.2720   48.8180   14.2380
    376      1   48.7260   27.3650   42.3075
    377      1   37.2560   31.8460   38.7520
    378      1   37.2460   29.9360   34.8255
    379      1   62.7570   49.0280   10.8955
    380      1   37.2330   38.5850   41.3740
    381      1   62.7720   31.6670   36.4750
    382      1   37.2190   50.2500   36.3460
    383      1   62.8710   38.4340   33.5790
    384      1   62.8340   31.1580   47.2550
    385      1   62.8340   41.1760   34.0560
    386      1   62.8480   41.6860    6.6325
    387      1   37.1490   36.2190   41.1825
    388      1   62.8670   42.5290   34.4915
    389      1   62.8710   35.0510    2.1375
    390      1   37.1180   32.9750   25.0345
    391      1   48.7110   41.1940   46.8930
    392      1   62.8870   32.5120   49.3690
    393      1   62.8930   70.1100    8.7055
    394      1   37.1070   67.1170   10.4635
    395      1   48.7100   28.7300   44.3965
    396      1   62.8980   33.8990   34.7270
    397      1   37.0870   48.1770   37.6185
    398      1   37.0690   69.6440   14.1400
    399      1   62.9480   51.6340   12.5290
    400      1   62.9640   55.8460   14.7865
    401      1   62.9680   69.8410   10.1210
    402      1   37.0240   43.0450   17.5620
    403      1   62.9780   53.0010   13.2945
    404      1   51.2980   73.7250   13.9575
    405      1   62.9890   61.9110   16.2490
    406      1   36.9930   62.6210   28.9615
    407      1   36.9870   41.1960   40.8485
    408      1   63.0240   30.2000   39.8980
    409      1   36.9740   34.0490   40.2220
    410      1   63.0500   52.1830   39.8240
    411      1   36.8980   63.5290    8.9395
    412      1   36.9440   68.9930   12.8415
    413      1   36.9420   32.1790   26.1745
    414      1   36.9310   46.0640   38.8050
    415      1   36.9210   59.3240   31.0835
    416      1   36.9200   51.2980   12.7140
    417      1   63.0950   30.3580   44.8525
    418      1   63.1370   59.7390   16.0240
    419      1   51.3130   57.6920   21.0020
    420      1   63.1370   64.3940   47.4385
    421      1   63.1470   67.2490   14.1975
    422      1   63.1520   42.9840    7.3905
    423      1   36.8440   38.0850   20.5630
    424      1   51.3160   58.8150    0.7845
    425      1   36.8420   43.6730   39.9325
    426      1   51.3170   70.2610    3.5020
    427      1   63.1780   30.0440   42.4050
    428      1   63.2010   57.9580   43.1270
    429      1   36.7890   52.6210   11.9625
    430      1   48.6780   69.3300   22.3015
    431      1   63.2200   50.9280   39.0685
    432      1   36.7670   30.9520   28.6405
    433      1   63.2360   63.3280   15.9685
    434      1   36.7590   66.1910   25.8030
    435      1   36.8050   64.9040    9.4370
    436      1   36.7490   30.5010   29.9125
    437      1   51.3280   27.8760   31.8110
    438      1   63.2920   39.4930    5.3670
    439      1   63.2940   62.3990   45.9085
    440      1   63.3350   65.9730   14.9315
    441      1   36.6210   60.7180    9.0225
    442      1   63.3830   30.8620   38.7445
    443      1   63.4210   33.4190    0.2405
    444      1   36.5780   57.1610   32.3450
    445      1   36.5750   36.8740   21.4655
    446      1   36.5740   55.1530   10.6910
    447      1   63.4320   56.6970   42.3965
    448      1   36.5330   59.2920    9.2915
    449      1   36.5320   56.4520   10.1525
    450      1   36.5270   69.7370   16.6760
    451      1   36.5110   60.4840   30.3680
    452      1   63.4950   58.3470   15.4815
    453      1   36.5010   45.6440   16.0665
    454      1   36.4830   67.6380   23.7695
    455      1   63.5310   69.6220    6.3000
    456      1   63.5450   30.9640   45.9805
    457      1   36.4340   65.0370   26.8410
    458      1   63.5690   32.0440   48.2445
    459      1   51.3570   33.0810   48.8080
    460      1   63.5880   68.5240   12.0925
    461      1   51.3660   41.6220   28.4660
    462      1   63.6690   45.6510    8.9245
    463      1   63.7340   60.8100   15.7240
    464      1   36.2830   46.8980   15.3400
    465      1   36.2750   31.3630   36.6515
    466      1   63.7310   30.5060   41.1370
    467      1   36.2660   30.4310   32.1160
    468      1   63.7350   46.9470    9.6730
    469      1   63.7360   48.3700   37.6030
    470      1   63.7410   37.3570    3.8380
    471      1   36.2480   54.9290   33.6215
    472      1   36.2160   32.2290   37.8345
    473      1   63.7950   30.5360   43.6235
    474      1   63.7960   69.5350    7.7160
    475      1   36.1950   68.6860   21.5095
    476      1   36.1910   34.7930   23.3980
    477      1   63.8120   32.7160   36.6480
    478      1   36.1880   69.2740   15.3120
    479      1   36.1880   69.3670   19.1270
    480      1   48.6180   64.5890   24.5980
    481      1   63.8410   40.7160    6.1005
    482      1   36.1270   66.9960   11.4945
    483      1   63.8790   47.1030   36.9325
    484      1   36.1100   30.7120   34.3715
    485      1   63.9090   33.8840   35.7580
    486      1   63.9280   68.7740    3.9215
    487      1   36.0680   36.1210   40.2715
    488      1   64.0280   38.9020   34.3705
    489      1   63.9530   68.8160   10.6960
    490      1   51.3950   54.5860    4.6975
    491      1   64.1670   66.0670   49.4300
    492      1   36.0170   67.9890   12.7155
    493      1   36.0050   58.3440   31.6560
    494      1   63.9950   44.4520   35.7220
    495      1   63.9970   67.4600   12.9085
    496      1   35.9930   52.6930   34.9090
    497      1   35.9920   34.8240   39.6735
    498      1   64.0180   40.2910   34.5545
    499      1   35.9690   40.3540   19.1465
    500      1   35.9630   33.8660   24.5355
    501      1   35.9620   66.6890   24.7730
    502      1   64.0670   54.2070   40.9730
    503      1   48.5930   72.4840    7.4735
    504      1   35.9240   49.3020   13.9575
    505      1   64.0880   43.1180   35.2545
    506      1   35.9360   62.8080    9.5980
    507      1   64.1540   60.0490   44.4200
    508      1   35.8150   38.5140   40.4155
    509      1   64.1900   38.5940    4.6595
    510      1   64.1930   35.4560    2.1110
    511      1   35.7960   30.8910   30.8360
    512      1   35.7740   39.0180   20.0590
    513      1   35.7490   50.4430   36.1705
    514      1   64.2540   49.0850   10.8940
    515      1   35.7220   50.5790   13.2730
    516      1   35.7220   43.3410   17.3690
    517      1   64.2790   52.9650   40.2740
    518      1   35.6690   64.9290   10.4720
    519      1   35.7020   69.1640   17.7875
    520      1   35.6940   56.1390   32.9200
    521      1   35.6870   32.3680   26.8730
    522      1   64.3130   63.5580   15.0380
    523      1   64.3310   68.9300    5.3510
    524      1   35.6680   61.5140    9.6600
    525      1   64.3410   64.8900   14.5105
    526      1   35.6510   31.7930   28.1300
    527      1   35.6510   30.9100   33.1880
    528      1   35.6480   62.6470   28.7065
    529      1   64.3540   51.1890   12.0460
    530      1   35.6440   67.8920   22.5695
    531      1   35.6390   41.0540   40.1170
    532      1   35.6170   48.2090   37.3725
    533      1   51.4390   39.1700   49.8205
    534      1   64.4000   58.7820   43.6455
    535      1   64.4180   55.7430   14.1585
    536      1   64.5160   36.4560   35.0635
    537      1   35.5440   31.5630   35.5335
    538      1   64.4690   53.3630   13.1360
    539      1   51.4480   55.9150   18.6780
    540      1   64.4810   31.8630   38.8340
    541      1   51.4490   45.9610   36.8050
    542      1   35.5070   68.6850   20.2275
    543      1   64.4950   64.3390   47.8420
    544      1   35.4860   43.5480   39.3880
    545      1   35.4560   45.9470   38.4200
    546      1   35.4540   58.6590   10.0470
    547      1   48.5440   33.8120   25.8490
    548      1   35.4310   53.2070   11.9670
    549      1   48.5420   54.5940   20.4505
    550      1   35.4010   44.7910   16.5630
    551      1   48.5390   55.3080   21.7695
    552      1   35.3870   57.2240   10.4065
    553      1   64.6160   36.5620    2.9705
    554      1   51.4620   71.1890   19.4255
    555      1   35.3670   53.9020   34.1835
    556      1   35.3640   65.8010   11.3945
    557      1   35.3600   37.1800   39.9120
    558      1   51.4650   55.2530   17.3510
    559      1   35.3480   54.5480   11.3980
    560      1   64.6570   50.3900   38.8745
    561      1   48.5330   59.7060   24.6245
    562      1   64.6880   67.9480    2.9910
    563      1   64.6920   32.7830   37.8030
    564      1   48.5300   55.5300    7.0415
    565      1   51.4700   36.7900   49.8800
    566      1   64.7390   61.9410   45.8495
    567      1   64.7410   60.8950   15.0175
    568      1   64.7420   31.7000   46.0210
    569      1   35.2440   36.7070   21.9720
    570      1   35.2340   64.5260   26.8310
    571      1   51.4770   45.2210   45.9260
    572      1   64.7710   35.2020   35.9060
    573      1   64.7790   32.3310   47.4435
    574      1   35.2050   33.4160   37.7820
    575      1   64.7970   56.2210   42.1465
    576      1   35.2010   63.5880   10.4180
    577      1   64.8070   68.7210    8.2010
    578      1   64.8370   58.2780   14.6940
    579      1   64.9260   37.8700   35.1200
    580      1   35.1470   51.6370   35.4260
    581      1   35.1400   34.5580   38.6205
    582      1   35.1340   68.2870   15.0945
    583      1   64.8680   33.9270    0.0060
    584      1   64.8880   68.2710    9.7655
    585      1   64.8940   31.4490   41.1850
    586      1   51.4900   71.2150    4.5240
    587      1   64.9040   49.0490   38.2095
    588      1   35.0880   67.6530   13.7965
    589      1   35.0830   39.7660   39.8995
    590      1   64.9370   47.7540   10.0770
    591      1   48.5060   71.9350   19.4835
    592      1   35.0500   60.5710   30.0785
    593      1   64.9460   65.0480   48.9030
    594      1   35.0280   35.6910   23.0125
    595      1   64.9800   31.3830   43.6700
    596      1   51.5000   73.8520   11.4615
    597      1   65.0220   50.0610   11.3010
    598      1   34.9510   49.3580   36.6180
    599      1   34.9270   47.3540   15.1675
    600      1   48.4920   32.4630   26.4375
    601      1   65.0810   66.3760   12.5595
    602      1   65.0930   46.4200   36.9755
    603      1   65.0970   54.5740   13.4205
    604      1   51.5100   61.1610   22.8045
    605      1   34.9020   63.4670   27.7220
    606      1   65.1320   45.0840   36.4525
    607      1   65.1340   54.9650   41.4720
    608      1   65.1350   62.3500   14.5860
    609      1   34.8490   42.2360   39.4125
    610      1   65.1560   40.8650   35.3635
    611      1   65.1780   34.9180    1.0145
    612      1   65.1880   60.7030   45.0535
    613      1   34.8110   47.0480   37.6960
    614      1   65.1930   42.3380   35.6280
    615      1   48.4770   43.7800   44.0535
    616      1   34.7650   48.5990   14.5145
    617      1   65.2370   65.0830   13.4280
    618      1   48.4750   70.2140    4.5955
    619      1   34.7390   44.6780   38.6425
    620      1   34.7220   31.7110   30.5610
    621      1   65.2850   32.1430   40.0355
    622      1   51.5290   54.3020   14.4810
    623      1   65.2910   40.9840    6.0575
    624      1   65.2930   52.2650   12.3545
    625      1   34.6870   41.2300   18.7940
    626      1   34.6820   33.9390   25.3105
    627      1   34.6780   61.5920   29.2255
    628      1   34.6560   58.4050   31.4530
    629      1   34.6290   66.0590   24.6480
    630      1   65.3920   57.0940   14.0990
    631      1   34.5820   32.5280   35.4590
    632      1   34.5820   33.2380   26.5085
    633      1   34.5800   42.5630   17.9790
    634      1   48.4570   36.7570   25.0890
    635      1   34.5620   61.0490   10.4965
    636      1   34.5590   32.1610   29.1270
    637      1   65.4420   59.6090   14.4800
    638      1   34.5430   68.2260   17.5160
    639      1   65.4680   68.1670    5.8140
    640      1   65.4770   31.9410   44.9400
    641      1   65.4880   38.9200    4.5750
    642      1   65.5260   31.8340   42.4995
    643      1   51.5550   46.2030   38.3785
    644      1   34.4380   59.6060   10.6135
    645      1   51.5570   54.0000   12.9580
    646      1   34.4310   38.7580   20.5765
    647      1   34.4040   51.2560   13.2355