 Lammps data file for helix_gr
 
        2656 atoms
           1 atom types
 
  -50.00000       150.0000     xlo xhi
  -50.00000       150.0000     ylo yhi
           0   50.00000     zlo zhi
 
  Atoms
 
      1      1   49.9700   43.3120   25.0875
      2      1   49.9590   33.9810    0.8245
      3      1   49.9540   25.7900   30.7815
      4      1   50.0520   47.8840   41.1180
      5      1   50.0570   64.8890   26.0895
      6      1   49.9320   47.3820   43.8465
      7      1   49.9280   24.0860   37.5245
      8      1   50.0790   47.1310   45.2080
      9      1   49.9160   42.3210    0.3080
     10      1   49.9160   40.8240    0.8610
     11      1   50.0920   48.0140   39.6880
     12      1   50.0940   59.6740   25.9895
     13      1   50.1050   73.4010   20.4890
     14      1   50.1050   71.3700    2.1315
     15      1   50.1170   73.0330    3.9295
     16      1   49.8720   45.8370   47.3115
     17      1   50.1290   53.2180    3.7905
     18      1   50.1310   48.0280   36.7590
     19      1   50.1320   47.3360   31.0395
     20      1   49.8600   52.2930   17.9320
     21      1   49.8120   57.0110    0.1405
     22      1   49.8070   58.3990   49.4815
     23      1   50.2010   54.4460    1.6775
     24      1   50.2010   47.9320   35.2820
     25      1   49.7940   65.9030   49.2345
     26      1   50.2080   27.4500   28.4580
     27      1   50.2150   72.5380   21.5480
     28      1   50.2150   57.2910   24.9900
     29      1   50.2230   37.8100    1.5190
     30      1   50.2290   74.3360    5.9710
     31      1   49.7660   25.0950   32.2015
     32      1   50.2390   66.3250   25.6245
     33      1   49.7590   45.4780   26.4735
     34      1   50.1700   67.4070   49.5315
     35      1   50.2780   75.3300    8.4075
     36      1   50.3000   47.5130   32.3955
     37      1   50.3270   52.0040    8.8990
     38      1   50.3340   28.4900   27.4450
     39      1   50.3360   46.2470   28.7655
     40      1   49.6580   58.2100   25.9665
     41      1   49.6730   55.9560   24.8495
     42      1   49.6290   61.4480   48.9120
     43      1   50.3750   70.2840   23.5595
     44      1   50.4470   24.7140   41.5525
     45      1   50.3930   34.6570   24.1855
     46      1   49.6030   24.1660   38.9665
     47      1   50.4010   51.9280   10.4140
     48      1   50.4110   69.0310   24.3690
     49      1   49.5880   31.5930   49.6985
     50      1   49.5780   62.1120   26.6555
     51      1   49.5670   35.3850    0.9315
     52      1   49.5640   38.2510   23.3490
     53      1   50.4720   32.3440   24.9670
     54      1   50.4810   36.3740    1.5920
     55      1   50.4890   40.3870   24.3530
     56      1   49.5090   44.0620   48.8085
     57      1   49.5060   44.7350   25.3565
     58      1   50.5070   52.2000    6.0120
     59      1   49.4850   36.8180   23.3425
     60      1   49.4830   52.2900   19.5085
     61      1   50.5200   75.8450   11.0225
     62      1   49.4770   75.4580   16.2100
     63      1   50.5260   36.0710   24.0295
     64      1   49.4700   41.1510   23.6770
     65      1   49.4610   62.9950   48.9680
     66      1   50.5540   31.1470   25.6175
     67      1   49.4430   69.2600    0.8220
     68      1   49.4350   29.3580   48.2280
     69      1   50.5730   53.3140    2.4220
     70      1   50.5860   52.1420   14.9420
     71      1   50.5950   70.1710    0.9990
     72      1   50.5990   24.4290   34.5930
     73      1   50.6020   38.9310   24.1245
     74      1   49.3920   51.9380   12.6210
     75      1   49.3900   46.1580   45.9465
     76      1   50.6210   45.2030   27.6565
     77      1   50.6270   45.0520   49.6655
     78      1   50.6410   25.7750   44.3660
     79      1   49.3410   75.8840   13.6820
     80      1   50.6630   63.5340   48.2830
     81      1   49.3290   47.2430   28.1150
     82      1   49.4540   52.9700   21.9470
     83      1   50.6910   46.6310   47.9845
     84      1   49.3080   52.0720   11.1500
     85      1   49.3040   60.6760   26.7825
     86      1   50.6990   52.0260   13.4470
     87      1   50.7020   55.9700   49.6180
     88      1   50.7060   27.2620   46.6250
     89      1   49.2880   52.8770    6.6550
     90      1   49.2830   30.2200   25.6450
     91      1   49.2760   55.3970    2.0800
     92      1   49.2750   42.5840   23.9200
     93      1   49.2530   27.5020   46.3970
     94      1   49.1540   68.0770    0.2895
     95      1   50.7550   52.2330    4.5815
     96      1   49.2330   51.8020   15.5195
     97      1   50.7700   75.8640   13.4905
     98      1   50.7770   74.4960   18.3930
     99      1   49.2210   33.9570   23.7915
    100      1   49.2200   25.9270   44.1685
    101      1   49.2180   24.2560   35.1215
    102      1   49.2170   74.5680   18.7435
    103      1   49.2140   68.6400   25.0880
    104      1   50.7980   72.2950    2.8345
    105      1   49.1940   32.6560   24.2545
    106      1   49.1910   28.9680   26.5965
    107      1   50.8160   62.5290   25.8615
    108      1   50.8170   29.1140   48.5460
    109      1   50.8190   54.6410    0.3595
    110      1   49.1770   67.2940   25.7655
    111      1   50.8280   24.8590   33.1925
    112      1   50.8380   61.1250   48.1065
    113      1   49.1580   44.5750   47.8370
    114      1   50.8530   65.0110   48.4660
    115      1   49.1300   48.2370   33.1775
    116      1   49.1150   71.1070   23.3750
    117      1   49.1120   52.6130    8.1085
    118      1   49.1090   48.2450   34.5890
    119      1   50.9040   58.6630   48.3545
    120      1   49.0910   54.0070    4.3040
    121      1   50.9130   73.7740    4.7810
    122      1   49.0790   33.0040    0.0710
    123      1   50.9270   46.3960   30.1415
    124      1   49.0660   75.8040   11.1630
    125      1   49.0500   51.7160   17.0220
    126      1   50.9600   75.3710   16.0000
    127      1   49.0320   42.7390   49.1975
    128      1   49.0310   46.9060   26.6885
    129      1   50.9720   43.2270    1.1295
    130      1   50.9850   31.2100    0.0745
    131      1   50.9960   40.2420    1.8975
    132      1   49.0030   56.6340    1.2845
    133      1   49.0020   48.1910   30.3480
    134      1   49.0020   72.1880   22.3535
    135      1   39.9980   73.8310   14.2740
    136      1   39.9890   48.8150   12.2760
    137      1   39.9780   41.7180   44.3535
    138      1   60.0380   41.4100   30.5290
    139      1   60.0430   73.0770   13.7525
    140      1   39.9300   72.6410   21.3535
    141      1   39.9120   67.4930   27.9360
    142      1   60.0950   73.7260   11.2240
    143      1   39.8960   44.1700   43.0260
    144      1   39.8960   33.7900   45.0685
    145      1   60.1060   52.2610   38.0425
    146      1   60.1200   42.5650    8.8335
    147      1   39.8600   44.5490   15.0795
    148      1   39.8590   60.0120    5.0675
    149      1   39.8440   56.0840   34.5630
    150      1   39.8440   63.0730   30.9200
    151      1   39.8380   45.3900   42.2200
    152      1   60.1660   67.8680   47.3815
    153      1   39.8330   53.9170   35.8515
    154      1   60.1710   57.1340   18.7450
    155      1   48.9830   38.3070    0.6675
    156      1   60.1860   64.7040   45.0435
    157      1   39.8050   73.5440   18.3895
    158      1   60.2120   26.9820   45.2975
    159      1   60.2190   55.0050   17.4585
    160      1   60.2270   39.9990   30.1190
    161      1   39.7720   54.1070    8.1605
    162      1   39.7710   57.2920   33.9350
    163      1   51.0230   74.9380    7.0730
    164      1   39.7670   36.4700   19.3240
    165      1   60.2370   56.6870   40.7270
    166      1   39.7600   26.3440   36.2695
    167      1   39.7570   61.4250    4.8020
    168      1   60.2440   26.6180   37.4955
    169      1   39.7490   73.7450   17.0325
    170      1   39.7430   33.1460   21.5390
    171      1   60.2610   35.6590   29.6945
    172      1   60.2620   31.2300    1.7925
    173      1   51.0300   47.9650   45.9660
    174      1   39.6990   70.4610    7.5360
    175      1   60.3020   47.0270   33.9935
    176      1   39.6930   65.7740    4.9600
    177      1   60.3100   64.4620   20.2655
    178      1   60.3100   30.6690   31.6115
    179      1   60.3180   37.1280   29.6855
    180      1   39.6780   52.9220   36.5525
    181      1   60.3320   28.1060   47.7080
    182      1   60.3470   52.9530   15.9880
    183      1   60.3590   29.4930   49.8345
    184      1   51.0360   42.5840   25.8005
    185      1   39.6330   73.1140   11.8575
    186      1   39.6310   64.3390    4.7600
    187      1   60.3790   60.0270   42.4180
    188      1   39.6190   31.4120   43.8415
    189      1   51.0380   48.3300   43.2340
    190      1   39.6020   35.2390   45.1655
    191      1   60.3990   44.6840   10.0945
    192      1   39.5840   68.6230   26.9055
    193      1   39.5740   49.8810   11.3915
    194      1   39.5570   71.9890    9.5850
    195      1   60.4590   69.7780   17.9415
    196      1   39.5140   41.1420   16.7860
    197      1   39.5050   55.2690    7.4385
    198      1   60.5030   51.1670   37.1535
    199      1   60.5200   65.8900   19.8775
    200      1   48.9480   24.8950   41.7955
    201      1   60.5270   27.2570   36.1245
    202      1   60.5360   45.8760   33.1945
    203      1   39.4560   26.4400   32.4555
    204      1   60.5500   69.5480   49.0565
    205      1   60.5560   50.9160   14.4325
    206      1   60.5570   35.6480    5.2180
    207      1   39.4300   27.3490   39.0250
    208      1   60.5850   68.5450   18.7165
    209      1   60.5880   28.8990   33.5075
    210      1   39.3850   28.0970   40.3695
    211      1   60.6150   46.8600   11.5150
    212      1   39.3550   31.2250   23.2660
    213      1   51.0650   52.7980   17.4190
    214      1   39.3490   30.2510   42.7705
    215      1   48.9330   48.1000   37.4575
    216      1   51.0680   63.8890   25.6660
    217      1   39.2950   59.7690   32.8010
    218      1   60.7100   37.8490    6.5325
    219      1   60.7110   66.7620   46.4800
    220      1   39.2850   50.6720   38.2725
    221      1   60.7320   48.8840   12.9535
    222      1   39.2310   46.8210   13.4585
    223      1   39.2230   34.3260   20.6515
    224      1   39.2060   42.3480   16.0675
    225      1   60.8010   71.0330    1.0965
    226      1   60.8030   58.8460   41.6965
    227      1   39.1880   27.1330   29.8615
    228      1   39.1860   29.5990   25.1755
    229      1   60.8180   54.3880   39.2145
    230      1   39.1770   65.4820   29.4815
    231      1   60.8720   62.0580   19.9370
    232      1   51.1200   55.4400   22.4385
    233      1   39.0910   28.1920   27.4360
    234      1   39.0890   32.7860   44.1425
    235      1   39.0650   49.5030   39.1420
    236      1   60.9350   43.3970   31.8090
    237      1   39.0610   70.4730   24.6785
    238      1   39.0570   38.0350   44.8965
    239      1   39.0560   26.5070   33.8625
    240      1   51.0960   46.3590   49.3675
    241      1   60.9710   26.5610   39.9755
    242      1   60.9880   62.2820   43.4965
    243      1   61.0000   72.3080    3.5510
    244      1   38.9830   61.0390   32.1905
    245      1   38.9680   57.9200    6.2365
    246      1   38.9490   52.1590    9.6230
    247      1   61.0540   71.2200   15.8790
    248      1   61.0550   33.3960   30.7100
    249      1   38.9440   38.8270   17.8550
    250      1   61.0680   40.1360    7.8450
    251      1   38.9250   67.9260    6.3165
    252      1   61.0780   73.0990    6.0470
    253      1   38.8950   47.9170   12.6485
    254      1   48.8890   26.9040   28.7185
    255      1   38.8790   71.2540   23.4235
    256      1   48.8870   47.9120   38.9330
    257      1   61.1270   42.0320   31.2560
    258      1   61.1270   68.6470   48.2115
    259      1   38.8660   39.3860   44.5705
    260      1   61.1430   33.4710    3.6560
    261      1   61.1510   48.9470   35.4240
    262      1   61.1510   26.8650   38.5350
    263      1   61.1670   53.2240   38.3930
    264      1   38.8310   32.2850   22.3250
    265      1   38.8220   66.6750   28.5585
    266      1   51.1180   75.6580    9.6175
    267      1   38.7960   59.3170    5.7960
    268      1   61.2340   59.7220   19.2955
    269      1   61.2430   63.4480   19.7555
    270      1   61.2730   73.3330    8.6115
    271      1   38.7230   73.2750   14.8805
    272      1   38.7180   53.3650    8.8345
    273      1   48.8710   24.1220   36.5765
    274      1   38.7080   42.1330   43.6425
    275      1   38.7040   43.4500   43.0400
    276      1   38.7000   66.5680    5.8775
    277      1   61.3180   26.7640   42.5515
    278      1   61.3190   36.6440    5.8975
    279      1   38.6730   54.8230   35.6720
    280      1   38.6700   45.9740   41.5950
    281      1   38.6660   47.1900   40.7985
    282      1   61.3350   34.8200   30.5215
    283      1   38.6450   55.7660   35.1205
    284      1   38.6430   72.5140   20.5650
    285      1   61.3670   39.1940   30.5155
    286      1   38.6310   62.1530    5.3485
    287      1   51.1370   48.4130   41.8720
    288      1   61.3730   70.1030   16.8365
    289      1   61.4030   47.7760   34.6180
    290      1   61.4070   72.3380   13.5190
    291      1   61.4070   61.0820   42.7615
    292      1   38.5920   26.9990   31.2505
    293      1   61.4130   73.0680   11.1045
    294      1   61.4170   70.1260    0.0235
    295      1   61.4200   37.7750   30.3670
    296      1   38.5560   73.2510   16.3605
    297      1   38.5540   63.6610    5.3865
    298      1   38.5510   30.5480   24.1720
    299      1   38.5470   72.8990   19.1370
    300      1   38.5300   40.0980   17.0910
    301      1   61.4710   42.2230    9.0435
    302      1   48.8520   39.8420    0.2695
    303      1   38.5100   44.6910   14.5745
    304      1   61.4940   57.4450   18.3730
    305      1   48.8500   64.4650   26.8225
    306      1   38.4890   27.0720   36.5290
    307      1   61.5240   34.5520    4.4770
    308      1   38.4520   69.7690    8.0090
    309      1   61.5550   31.3400   32.1620
    310      1   61.5660   56.5070   40.2405
    311      1   38.4120   63.5210   30.8180
    312      1   38.4090   29.0490   26.3140
    313      1   61.5910   38.8830    7.2380
    314      1   38.4020   27.8440   28.7010
    315      1   51.1610   47.7850   47.3775
    316      1   61.6080   71.5410    2.3595
    317      1   48.8390   47.3420   41.7320
    318      1   38.3800   35.7540   44.4430
    319      1   38.3700   30.2290   41.8510
    320      1   38.3580   72.5490   12.4180
    321      1   61.6460   64.4750   44.8160
    322      1   61.6490   31.4120    1.7170
    323      1   38.3500   27.5740   37.8805
    324      1   61.6530   55.2320   17.2230
    325      1   38.3460   57.6750   34.1215
    326      1   38.3450   29.0470   40.5790
    327      1   61.6600   27.9810   36.1620
    328      1   61.6640   66.2800   18.9545
    329      1   38.3090   36.6270   19.0865
    330      1   61.6940   27.4580   45.0955
    331      1   61.7020   67.6160   18.3590
    332      1   61.7070   72.5070    4.7750
    333      1   38.2900   52.5930   37.1270
    334      1   48.8280   75.2240    8.6030
    335      1   51.1720   38.7630    2.1580
    336      1   48.8270   30.6110   48.8190
    337      1   61.7340   61.0910   19.3295
    338      1   61.7420   28.4590   47.5405
    339      1   38.2570   71.3200   10.0565
    340      1   61.7470   29.4050   34.1025
    341      1   38.2140   68.8510   26.4210
    342      1   61.7900   53.1010   15.9285
    343      1   61.8090   72.9850    7.2820
    344      1   61.8170   26.9420   41.1005
    345      1   48.8180   46.9230   43.0980
    346      1   61.8320   44.4120   10.3430
    347      1   38.1680   55.8550    7.4925
    348      1   38.1630   45.8510   13.8165
    349      1   38.1360   50.1860   11.0095
    350      1   61.8660   29.8710   49.7815
    351      1   61.8770   71.4220   14.6135
    352      1   61.8810   50.9250   36.7465
    353      1   61.8890   55.3250   39.5025
    354      1   38.1010   64.6860   30.0365
    355      1   61.9050   45.3680   33.1755
    356      1   38.0940   37.1740   44.3625
    357      1   38.0920   51.4090   37.9270
    358      1   38.0780   58.8880   33.5100
    359      1   38.0680   68.5550    7.3945
    360      1   48.8060   26.1270   29.8650
    361      1   61.9420   32.6610   31.6955
    362      1   61.9770   41.0490    8.4995
    363      1   62.0050   72.9220    9.7860
    364      1   37.9770   37.8230   18.3340
    365      1   37.9710   69.7260   25.2800
    366      1   62.0290   63.2600   44.0070
    367      1   62.0460   50.9260   14.4920
    368      1   62.0490   58.7440   18.6110
    369      1   37.9480   57.1850    6.9635
    370      1   51.2060   44.6360    0.8760
    371      1   62.0720   72.3860   12.2180
    372      1   48.7900   48.2480   28.7995
    373      1   62.0960   44.0580   32.5440
    374      1   37.8920   33.2900   43.4470
    375      1   62.1160   46.5690   11.6780
    376      1   37.8840   72.6680   13.9390
    377      1   37.8630   51.3540   10.2330
    378      1   37.8590   34.5590   20.5235
    379      1   48.7830   73.9350   20.0370
    380      1   62.1870   66.4780   46.3680
    381      1   62.1890   49.7500   35.9600
    382      1   62.1940   32.4490    2.6365
    383      1   48.7800   59.3340    0.0215
    384      1   62.2110   27.3530   43.7410
    385      1   37.7880   42.5090   15.6585
    386      1   51.2230   73.7620   19.5050
    387      1   62.2510   58.6850   41.3130
    388      1   62.2680   48.7130   13.0400
    389      1   62.2750   56.4990   17.6545
    390      1   37.7210   27.1870   34.0755
    391      1   37.7090   49.0060   39.5175
    392      1   37.7090   70.2360    9.2470
    393      1   37.6960   71.6980   11.4935
    394      1   51.2320   60.1300   25.2115
    395      1   62.3490   28.9720   35.3630
    396      1   37.6380   59.9890    6.2130
    397      1   37.6360   39.8850   43.8105
    398      1   62.3670   30.6850   33.3980
    399      1   62.3760   43.1620    9.7265
    400      1   62.3880   54.2680   16.4915
    401      1   48.7610   71.1510    2.4810
    402      1   37.6010   56.7310   34.8070
    403      1   37.5990   65.8750    6.4540
    404      1   62.4090   41.3170   31.5725
    405      1   37.5810   71.1990   22.7085
    406      1   37.5750   61.4110    6.0310
    407      1   62.4420   35.4980   31.1520
    408      1   37.5560   47.8160   40.2570
    409      1   62.4490   28.1520   46.2160
    410      1   51.2450   48.1210   37.5475
    411      1   62.4600   39.8900   31.2420
    412      1   62.4650   63.8790   18.9265
    413      1   62.4690   36.9840   31.0070
    414      1   37.5170   41.2830   43.3995
    415      1   37.5150   64.4020    6.1630
    416      1   62.5020   69.2480   16.5415
    417      1   37.4920   61.4570   32.1170
    418      1   51.2520   48.2950   39.0000
    419      1   37.4810   48.1450   12.2990
    420      1   37.4770   34.8090   43.6510
    421      1   37.4770   66.9770   28.1290
    422      1   37.4670   45.2850   41.6925
    423      1   51.2540   33.5520    1.2990
    424      1   62.5450   30.7410    0.6520
    425      1   62.5530   29.3370   48.5940
    426      1   51.2550   26.3030   30.4260
    427      1   37.4430   43.9800   42.3315
    428      1   37.4400   43.6910   14.9490
    429      1   37.4390   71.7750   21.2545
    430      1   37.4280   27.4880   35.4145
    431      1   37.4280   31.2380   41.8610
    432      1   37.4250   32.6080   22.2830
    433      1   62.5840   52.1090   15.1965
    434      1   62.5940   52.9590   37.9790
    435      1   37.3870   72.6350   16.9455
    436      1   37.3760   53.8440    8.8040
    437      1   37.3740   35.7030   19.7155
    438      1   62.6310   57.4620   40.5840
    439      1   62.6420   68.2790   48.2185
    440      1   62.6500   65.3330   45.4960
    441      1   37.3300   54.5180   36.0845
    442      1   62.6760   65.2820   18.5135
    443      1   37.3220   72.4840   18.3645
    444      1   62.7060   67.9930   17.2890
    445      1   62.7290   47.3290   34.4905
    446      1   62.7470   36.5680    5.8775
    447      1   62.7490   45.3750   11.0455
    448      1   37.2480   27.5950   31.4565
    449      1   37.2240   62.6540   31.3765
    450      1   37.2150   29.2290   39.4675
    451      1   37.1960   32.5380   42.5375
    452      1   37.1950   68.0230   27.0220
    453      1   51.2810   25.1100   43.0755
    454      1   51.2810   57.7090   24.1550
    455      1   62.8090   60.8600   42.5045
    456      1   37.1750   28.5050   38.1140
    457      1   37.1720   30.9240   24.2095
    458      1   48.7160   55.5160   26.0010
    459      1   37.1380   40.3770   16.7875
    460      1   37.1370   49.3490   11.5450
    461      1   62.8650   69.6420   49.9865
    462      1   37.1020   53.2840   36.8390
    463      1   37.0930   55.1720    8.1840
    464      1   62.9110   51.7540   37.2220
    465      1   62.9170   49.8050   13.7475
    466      1   37.0150   28.3370   28.9445
    467      1   62.9880   71.0570    2.4750
    468      1   62.9890   47.5670   12.3680
    469      1   62.9970   46.0730   33.8475
    470      1   62.9970   61.4700   18.6315
    471      1   51.3010   52.2780    1.8080
    472      1   48.6990   75.7240   15.0205
    473      1   63.0120   72.3610    7.4030
    474      1   36.9730   33.7020   21.3695
    475      1   36.9600   29.4950   26.4805
    476      1   63.0410   38.6470    7.1915
    477      1   63.0650   71.9020    4.8315
    478      1   63.0670   70.5780   14.3790
    479      1   63.0950   27.6570   41.0120
    480      1   63.1010   34.6720    4.4200
    481      1   36.8880   67.8420    7.9795
    482      1   36.8550   37.5930   43.5785
    483      1   63.1520   33.3000   32.3785
    484      1   63.1570   67.2150   47.2770
    485      1   51.3200   24.1430   37.0195
    486      1   36.7780   27.7160   32.8740
    487      1   36.7730   50.8830   38.3145
    488      1   63.2280   59.6440   41.7775
    489      1   36.7640   59.2710   33.4540
    490      1   48.6740   60.7630   49.6810
    491      1   48.6730   74.1810    6.2515
    492      1   63.2720   72.1910    9.4395
    493      1   36.7270   46.1270   13.4780
    494      1   36.7040   41.5820   16.0730
    495      1   63.2970   71.6030   12.0040
    496      1   36.7010   72.0200   14.5280
    497      1   63.3020   55.0370   39.1455
    498      1   36.6980   57.8470    7.2585
    499      1   36.6940   64.9960   29.6615
    500      1   36.6870   69.7510   24.5890
    501      1   36.6440   66.5200    7.4780
    502      1   63.3580   62.8680   18.4100
    503      1   63.3710   34.7130   32.0235
    504      1   63.3740   69.5210   15.3490
    505      1   63.3740   59.0980   18.0470
    506      1   36.6090   49.6490   39.0355
    507      1   63.4020   43.3740   32.7365
    508      1   63.4040   40.7880    8.4710
    509      1   36.5880   38.9540   43.3525
    510      1   36.5690   31.9250   23.2615
    511      1   36.5600   59.2540    6.9480
    512      1   36.5540   51.8050   10.1230
    513      1   36.5330   38.1140   18.1610
    514      1   63.4670   62.9570   43.8610
    515      1   36.4900   60.5690   32.6715
    516      1   36.4830   69.5600    9.8735
    517      1   36.4780   70.4430   23.2720
    518      1   63.5240   41.9980   32.3180
    519      1   63.5260   68.7890   49.1575
    520      1   63.5270   49.2970   35.7730
    521      1   63.5270   37.6650   31.6830
    522      1   63.5330   31.3640   33.9870
    523      1   36.4570   28.2230   30.3105
    524      1   36.4470   70.9980   12.0810
    525      1   63.5620   28.0190   43.5030
    526      1   63.5630   35.6930    5.1415
    527      1   63.5710   39.1510   31.7700
    528      1   63.5720   32.7450    2.5475
    529      1   36.4270   63.6540    6.8215
    530      1   36.3420   66.0380   28.6895
    531      1   63.5880   37.5380    6.4660
    532      1   36.4090   62.1710    6.7270
    533      1   51.3590   41.0930   25.3095
    534      1   36.3850   31.1000   40.7155
    535      1   36.3800   47.3250   12.7710
    536      1   63.6220   29.7240   35.9045
    537      1   36.3770   56.5580   34.9875
    538      1   36.3720   72.0100   16.0545
    539      1   63.6290   70.0640    1.1755
    540      1   63.6380   71.8710    6.2240
    541      1   36.3570   30.4210   25.3795
    542      1   36.3480   47.1260   40.4235
    543      1   63.6580   53.8340   38.4440
    544      1   48.6340   72.8180    4.2260
    545      1   63.6960   56.8160   17.1980
    546      1   36.2980   53.0890    9.4820
    547      1   36.2860   41.8010   42.6405
    548      1   36.2770   35.2810   42.8630
    549      1   63.6300   28.2490   39.7010
    550      1   63.7370   71.2180    3.7230
    551      1   63.7430   71.9790    8.3855
    552      1   63.7450   67.0620   16.9080
    553      1   36.2550   45.8100   41.0620
    554      1   36.2540   29.1310   27.8460
    555      1   48.6250   28.5470   47.2040
    556      1   63.7530   65.6870   17.5370
    557      1   63.7700   28.6790   45.8995
    558      1   36.2220   28.3440   35.6550
    559      1   48.6220   63.0480   27.1925
    560      1   48.6220   57.7810   26.8955
    561      1   36.2150   43.1810   42.1750
    562      1   36.2150   71.4690   20.3530
    563      1   63.8000   54.5460   16.2165
    564      1   36.1980   30.2740   39.5945
    565      1   36.1940   71.7920   18.8910
    566      1   51.3810   75.8900   12.1705
    567      1   63.8140   48.0470   35.1100
    568      1   63.8220   60.4540   18.0330
    569      1   63.8220   70.7090   13.0705
    570      1   63.8240   42.9080    9.7055
    571      1   63.8270   61.7560   43.0935
    572      1   51.3840   59.9740   47.7450
    573      1   51.3890   51.4430    8.1790
    574      1   36.1080   39.3960   17.3785
    575      1   36.1080   28.8590   37.0025
    576      1   48.6100   55.0550    3.3380
    577      1   63.9050   71.5530   10.5440
    578      1   51.3920   51.3750    6.7460
    579      1   48.6070   45.4330   24.3040
    580      1   63.9290   52.3540   15.0820
    581      1   63.9310   32.6580   33.4340
    582      1   63.9610   29.7240   48.3400
    583      1   36.0600   55.2750   35.7250
    584      1   63.9440   39.5400    7.7600
    585      1   63.9470   28.1450   42.2250
    586      1   36.0460   68.3790    9.2200
    587      1   63.9750   31.1590    0.5040
    588      1   51.3990   66.7480   24.9145
    589      1   36.0100   33.1380   41.8070
    590      1   36.0010   43.9810   14.6905
    591      1   35.9960   36.0180   19.6750
    592      1   51.4030   47.5940   34.5985
    593      1   64.0410   57.1790   40.3505
    594      1   64.0420   64.9720   45.4670
    595      1   35.9410   36.6460   42.8710
    596      1   48.5930   75.0240   17.7385
    597      1   35.9270   71.2010   13.5950
    598      1   51.4090   26.4010   45.6340
    599      1   35.9070   62.9700   31.0655
    600      1   64.0990   33.8880    3.5100
    601      1   64.1090   29.3620   37.2825
    602      1   64.3180   50.0880   13.7830
    603      1   35.8290   55.7120    8.4040
    604      1   35.8210   68.0270   26.4195
    605      1   64.1850   30.8360   35.2335
    606      1   48.5810   51.3630   20.0595
    607      1   64.1910   45.1580   10.9925
    608      1   35.7830   69.9440   11.2710
    609      1   35.7790   49.7460   11.3990
    610      1   64.2400   58.1150   17.3525
    611      1   51.4260   27.1860   29.2495
    612      1   64.2890   45.4590   33.9505
    613      1   35.6880   64.1460   30.1320
    614      1   48.6980   51.7770   22.3725
    615      1   64.3230   51.4020   37.0685
    616      1   64.3440   41.7080    8.9940
    617      1   35.6540   57.0580    8.0075
    618      1   35.6470   52.7890   37.1375
    619      1   35.6340   45.2570   13.9775
    620      1   64.3660   28.6520   44.5405
    621      1   64.3890   55.9350   39.6500
    622      1   64.4220   35.4060   32.6635
    623      1   35.5560   32.2580   40.7780
    624      1   35.5540   68.8790   25.1270
    625      1   35.5540   28.4810   33.0940
    626      1   64.4560   32.1260    1.4800
    627      1   48.5540   65.2080   49.7140
    628      1   35.5370   58.5030   33.8595
    629      1   35.5350   34.0450   21.4835
    630      1   64.4760   63.8100   44.6405
    631      1   35.5150   51.5710   37.8130
    632      1   35.5140   65.7840    8.1380
    633      1   64.4870   55.8280   16.4915
    634      1   35.5060   34.3620   41.9285
    635      1   64.5040   44.0710   33.4710
    636      1   64.5070   63.2740   17.5455
    637      1   35.4880   37.2340   18.8730
    638      1   64.5180   68.6260   14.9350
    639      1   35.4690   51.0350   10.7535
    640      1   64.5480   53.6250   15.5390
    641      1   64.5500   36.8730   32.4685
    642      1   64.5530   66.7600   47.3160
    643      1   64.5630   47.3900   12.2255
    644      1   35.4320   59.9400    7.4825
    645      1   51.4600   28.0630   47.7505
    646      1   48.6260   53.3480   24.8165
    647      1   35.3800   64.3910    7.7725