 Lammps data file for helix_gr
 
         884 atoms
           1 atom types
 
  -50.00000       150.0000     xlo xhi
  -50.00000       150.0000     ylo yhi
           0   50.00000     zlo zhi
 
  Atoms
 
      1      1   49.9920   66.9040   15.2705
      2      1   50.0270   39.8440   37.4675
      3      1   50.0410   38.3620   41.0235
      4      1   49.9580   67.5550   14.0520
      5      1   50.0150   34.5270   33.5760
      6      1   49.8350   35.8070   41.7880
      7      1   50.2000   39.1290   34.9860
      8      1   50.2090   32.6380   39.5840
      9      1   49.7900   62.2670   16.6580
     10      1   50.1980   37.0140   33.3620
     11      1   49.7410   67.5880   11.2315
     12      1   49.7220   66.7260    9.7750
     13      1   49.7060   32.2590   36.5865
     14      1   49.6650   39.1950   39.9075
     15      1   49.6330   64.6390   17.0040
     16      1   49.6320   60.4410   11.0205
     17      1   50.4270   33.4230   34.5310
     18      1   50.4380   33.4520   40.8840
     19      1   49.5550   62.4290    8.7260
     20      1   49.5500   63.8720    8.3545
     21      1   50.4750   60.7150   14.6295
     22      1   49.5150   60.1290   12.5145
     23      1   49.4680   34.4940   41.1800
     24      1   50.5550   39.7520   38.9505
     25      1   49.4170   32.7150   35.0960
     26      1   50.6730   60.2710   13.3190
     27      1   50.7770   37.9670   34.1585
     28      1   50.7460   61.6040    8.3830
     29      1   50.7700   64.4080    7.7495
     30      1   50.7990   39.6210   36.3330
     31      1   49.1930   60.5220   15.2575
     32      1   49.1860   63.2770   17.3545
     33      1   49.1790   37.0690   41.2665
     34      1   50.8240   66.5140    9.0015
     35      1   50.7720   35.6770   33.6045
     36      1   49.1170   37.2720   32.7340
     37      1   50.9220   64.8980   16.2320
     38      1   50.9790   60.2720   10.4520
     39      1   39.9750   43.7550   25.6805
     40      1   60.0250   51.9350    0.5375
     41      1   39.9720   48.6600   26.0230
     42      1   39.9710   42.2610   34.4300
     43      1   39.9160   38.6430   35.8420
     44      1   60.0980   63.5630   10.1395
     45      1   39.8970   57.2410   24.1435
     46      1   60.1340   45.8820   44.0900
     47      1   39.8540   63.0610   20.9510
     48      1   60.1490   50.7580   49.7915
     49      1   60.1500   48.2440   49.9520
     50      1   39.8340   55.7710   24.5000
     51      1   39.8330   39.9470   26.8360
     52      1   39.8160   51.4480   25.2380
     53      1   60.1850   44.2280   42.2620
     54      1   39.8080   50.3620   24.1905
     55      1   39.8070   52.8510   24.9775
     56      1   60.1980   49.5240    0.5580
     57      1   60.2020   56.6680    0.6670
     58      1   60.2170   37.7840   39.3340
     59      1   39.7750   46.1400   30.7135
     60      1   39.7570   48.9330   24.5845
     61      1   60.2480   39.4730   47.9200
     62      1   39.7430   36.0070   30.4625
     63      1   60.2660   53.1580   49.9135
     64      1   39.7320   57.1690   16.0055
     65      1   60.2680   64.2720    8.9985
     66      1   39.7240   60.9890   14.2765
     67      1   39.7140   50.8640   22.8705
     68      1   60.2870   47.5450   45.9535
     69      1   60.2880   36.5040   39.9940
     70      1   60.3080   45.8150    0.0275
     71      1   39.6710   64.2730   18.8465
     72      1   51.0330   62.4800   15.9870
     73      1   39.6540   49.6810   26.8685
     74      1   39.6500   47.9240   28.7310
     75      1   60.3730   49.3250   47.8015
     76      1   39.6020   58.3430   15.2350
     77      1   60.3990   40.7740   48.6285
     78      1   60.4070   59.1310    1.3025
     79      1   60.4280   35.5890   42.3105
     80      1   60.4330   42.3930   40.7130
     81      1   39.5560   62.0630   21.8870
     82      1   39.5440   63.2370   14.9705
     83      1   60.4650   50.9200    2.6735
     84      1   39.5330   41.2620   26.1215
     85      1   60.4700   55.6210    0.1460
     86      1   39.5230   35.6680   33.0140
     87      1   60.4990   47.0680    0.6170
     88      1   60.5240   40.2160   39.6650
     89      1   60.5350   50.6580   48.3940
     90      1   39.4470   51.0400   26.4775
     91      1   48.9440   39.5030   34.7330
     92      1   60.5690   54.7120    6.8880
     93      1   39.4230   46.4280   24.4780
     94      1   39.4170   52.4380   20.5015
     95      1   60.5870   61.4350    2.5970
     96      1   39.3890   37.4740   35.2470
     97      1   60.6200   49.6140    1.9600
     98      1   39.3780   39.9690   35.3445
     99      1   60.6230   62.2790   10.2830
    100      1   39.3690   64.2510   17.4965
    101      1   39.3370   44.4960   32.5825
    102      1   39.3070   47.7820   23.8200
    103      1   48.9300   32.6130   38.8735
    104      1   60.7080   55.7960    7.9485
    105      1   51.0720   32.2670   37.3565
    106      1   39.2630   53.3370   19.3725
    107      1   60.7460   35.9730   43.7650
    108      1   39.2470   49.2520   28.1215
    109      1   60.7700   47.0580   44.7520
    110      1   60.7820   48.9360   46.5385
    111      1   60.7860   45.2670   43.0135
    112      1   48.9190   34.7350   32.8925
    113      1   60.8240   52.3830    4.7355
    114      1   51.0830   67.7390   11.7710
    115      1   39.1680   47.4000   29.9915
    116      1   39.1360   53.7960   25.8045
    117      1   60.8800   58.2620    9.5665
    118      1   60.8880   43.3700   49.8570
    119      1   48.9100   61.1260   16.4170
    120      1   60.9330   59.6380   10.0830
    121      1   60.9510   57.8890    0.5580
    122      1   60.9580   63.9430    6.6360
    123      1   61.0000   36.3920   41.2475
    124      1   61.0030   38.8990   39.8070
    125      1   38.9820   63.4290   19.9535
    126      1   61.0270   43.4350   41.4665
    127      1   38.9600   45.5870   31.7600
    128      1   51.1050   35.9300   42.5135
    129      1   38.9460   43.9480   24.7835
    130      1   38.9440   55.2680   25.4605
    131      1   61.0580   62.9530    4.2890
    132      1   38.9320   59.5690   23.6350
    133      1   38.9310   50.3370   21.7855
    134      1   61.0750   44.6880    0.4385
    135      1   61.0820   60.3140    1.7875
    136      1   61.1100   53.2260   48.7165
    137      1   61.1400   51.1060    3.9295
    138      1   38.8280   55.3370   17.4010
    139      1   61.1990   63.7240    7.9910
    140      1   61.2010   41.2880   40.3390
    141      1   38.7940   58.1900   24.3805
    142      1   61.2550   51.9030   47.9430
    143      1   61.2630   37.6900   46.3645
    144      1   38.7300   45.2950   24.1195
    145      1   61.3190   47.2970    1.7435
    146      1   38.6260   51.9310   27.1710
    147      1   61.3910   48.5630    2.4810
    148      1   38.5910   60.4620   15.0845
    149      1   38.5760   51.3050   20.6525
    150      1   38.5700   42.5050   33.9905
    151      1   38.5630   56.4930   16.5625
    152      1   61.4640   38.8070   47.4545
    153      1   38.4950   36.7140   30.4090
    154      1   38.4880   62.6810   15.8950
    155      1   51.1530   66.0940   15.5070
    156      1   38.4550   36.6550   33.0080
    157      1   61.5460   62.0490    3.3740
    158      1   38.4450   59.0610   15.3915
    159      1   38.3640   47.9000   22.7245
    160      1   61.6380   55.6590   49.3155
    161      1   38.3580   37.5870   34.1235
    162      1   61.6570   61.8440    9.3920
    163      1   38.3320   63.2610   17.1655
    164      1   38.3230   53.2840   26.7590
    165      1   61.7030   63.1770    5.5220
    166      1   61.7270   53.8630    6.5435
    167      1   61.7320   41.2050   49.1885
    168      1   61.7830   49.6370   45.9860
    169      1   61.7970   52.6990    5.7130
    170      1   38.1980   43.7350   33.2450
    171      1   38.1910   61.5670   22.0445
    172      1   38.0990   40.0700   34.5145
    173      1   38.0950   49.1270   21.8365
    174      1   61.9120   42.4570   49.9095
    175      1   38.0720   49.9880   28.7220
    176      1   61.9390   36.8840   44.0185
    177      1   61.9590   54.4550   48.6105
    178      1   61.9660   60.4490    9.4650
    179      1   61.9890   56.2520    8.1995
    180      1   37.9940   53.3630   18.7245
    181      1   62.0510   37.4820   41.6535
    182      1   62.0630   62.5800    8.2410
    183      1   62.0830   47.6630   44.4395
    184      1   37.8230   48.0150   30.3425
    185      1   62.0940   57.6420    8.8375
    186      1   51.2100   67.5940   13.2180
    187      1   62.1110   57.8230    0.1675
    188      1   37.8860   61.3410   15.8355
    189      1   62.1250   38.7090   40.8725
    190      1   37.8620   60.3700   23.0825
    191      1   37.8540   36.9910   31.6960
    192      1   37.9570   37.6570   29.3965
    193      1   37.8480   62.7680   19.7985
    194      1   51.2160   65.6480    7.9465
    195      1   62.1820   45.5750   42.9160
    196      1   62.2120   45.0290    1.2455
    197      1   37.7570   56.0800   25.7390
    198      1   62.2570   50.1670    4.1525
    199      1   62.2640   46.3850    1.9610
    200      1   62.2900   37.5760   45.3610
    201      1   37.6850   54.5740   17.8695
    202      1   37.6570   51.3080   28.1620
    203      1   62.3520   48.9300    3.4180
    204      1   37.6190   41.3880   34.0170
    205      1   62.3910   51.9520   47.1415
    206      1   37.6050   38.8570   33.8885
    207      1   37.6040   45.5300   23.3980
    208      1   62.4350   43.4390   41.7305
    209      1   48.7550   66.7000   16.0600
    210      1   62.4560   59.8120    1.4900
    211      1   37.5440   57.5320   25.0150
    212      1   37.4990   62.6220   18.3610
    213      1   62.5230   41.1160   41.0450
    214      1   62.5300   56.6410   49.4450
    215      1   37.4650   46.0810   31.7435
    216      1   51.2590   38.5030   41.7970
    217      1   62.6000   48.8520   45.0885
    218      1   62.6330   50.8810   46.4235
    219      1   37.3550   61.9040   20.9535
    220      1   37.3540   46.7810   22.6615
    221      1   62.6730   37.5900   42.9700
    222      1   37.3250   58.5190   16.1835
    223      1   37.3120   57.1250   16.5835
    224      1   37.2720   51.3460   19.9435
    225      1   62.6300   39.4150   47.7150
    226      1   37.3090   49.2960   29.5985
    227      1   62.8260   61.4660    3.5000
    228      1   62.8290   62.3060    5.8895
    229      1   62.8430   46.7950   43.6800
    230      1   37.1340   39.7400   27.2135
    231      1   62.8680   40.5790   48.7120
    232      1   51.2890   32.3010   38.8695
    233      1   37.0780   53.9780   27.0180
    234      1   62.9410   58.5640    0.6140
    235      1   62.9480   61.9280    7.2540
    236      1   62.9680   39.8550   41.4370
    237      1   37.0280   47.2620   31.0135
    238      1   62.9810   59.9300    8.5875
    239      1   48.7010   65.9820    9.5165
    240      1   62.9880   44.5410   42.4295
    241      1   63.0350   54.3310    6.9775
    242      1   48.6950   39.8850   37.2585
    243      1   36.8950   60.7640   16.8005
    244      1   36.8920   40.8280   26.2405
    245      1   36.8710   38.0830   31.6555
    246      1   36.8440   52.5050   19.1445
    247      1   63.1590   55.6360    7.5735
    248      1   63.1620   58.4980    8.4765
    249      1   63.1620   42.2260   41.6835
    250      1   63.2250   51.9090    5.5220
    251      1   63.1990   38.3980   45.5890
    252      1   63.2410   60.3490    2.4255
    253      1   36.7540   43.9290   32.7415
    254      1   36.7370   49.2530   21.0910
    255      1   63.2700   54.2620   48.0690
    256      1   36.7200   39.0170   32.7330
    257      1   36.7030   55.3020   26.3420
    258      1   48.6690   67.7330   13.4780
    259      1   36.6650   61.4650   18.0550
    260      1   63.3420   43.0520    0.3255
    261      1   63.3680   50.6540    4.7675
    262      1   36.6220   59.9010   23.0035
    263      1   48.6590   64.7010    8.9195
    264      1   36.5670   44.6210   23.6700
    265      1   63.4550   44.3060    1.0795
    266      1   63.4640   61.4970    4.7825
    267      1   36.5200   43.3380   24.5515
    268      1   63.4870   46.8700    2.6105
    269      1   63.5040   48.1480    3.3300
    270      1   36.4800   59.3420   16.8415
    271      1   63.5570   53.0820   47.3735
    272      1   63.5580   60.6730    7.5275
    273      1   48.6440   32.2690   37.3890
    274      1   63.5890   38.6670   43.4255
    275      1   36.4000   41.4780   33.0860
    276      1   36.3990   45.1840   32.0625
    277      1   51.3620   60.5780    9.1200
    278      1   63.4750   39.1990   46.7590
    279      1   36.3580   51.8980   28.3090
    280      1   36.3280   55.1380   17.8135
    281      1   48.6280   65.6300   17.0685
    282      1   36.2700   50.5030   20.3310
    283      1   36.2650   61.0840   20.7260
    284      1   63.8600   38.9230   44.5505
    285      1   36.2200   56.5330   17.3660
    286      1   36.1930   57.8040   24.6695
    287      1   63.8120   39.7050   42.6740
    288      1   63.8950   56.2980   49.2660
    289      1   63.9120   49.4680   45.2500
    290      1   36.0820   53.2150   27.5770
    291      1   36.0440   47.0820   22.2690
    292      1   63.9770   50.7610   45.9935
    293      1   35.9950   40.3200   32.4280
    294      1   35.9240   60.7910   19.2655
    295      1   35.9100   58.7880   23.6505
    296      1   35.9070   42.7890   32.5560
    297      1   35.9210   39.8010   28.4135
    298      1   35.8610   60.2780   21.7380
    299      1   64.1430   46.8010   43.8410
    300      1   35.8490   49.6980   29.6130
    301      1   64.1570   57.9120    7.5740
    302      1   48.5780   67.6210   12.1040
    303      1   64.2380   41.4110   48.7175
    304      1   64.2540   58.0160    0.7125
    305      1   64.2580   56.4400    7.3090
    306      1   64.3000   53.8340    6.3395
    307      1   35.6960   48.3260   21.5865
    308      1   64.3070   42.0880   42.6005
    309      1   64.3140   55.1230   48.5945
    310      1   64.3180   44.4910   43.0295
    311      1   51.4350   61.5320   15.1185
    312      1   64.3580   60.0120    6.4815
    313      1   35.6340   47.5380   30.7025
    314      1   64.3840   60.4590    5.1010
    315      1   64.4200   52.5770    5.7140
    316      1   64.4230   59.6690    2.7450
    317      1   35.5390   58.7140   17.8545
    318      1   64.4620   40.1070   46.5715
    319      1   64.4690   40.7870   43.3665
    320      1   35.5280   53.0560   19.0495
    321      1   64.5320   42.6320   49.6095
    322      1   35.3630   50.9510   28.8345
    323      1   64.6180   39.9200   45.2585
    324      1   64.7790   46.1450    2.0940
    325      1   35.3590   55.6260   25.9750
    326      1   35.3560   41.4970   26.7305
    327      1   64.6960   44.9340    1.2860
    328      1   35.3260   48.7740   29.9450
    329      1   35.3210   54.4780   18.5730
    330      1   64.6810   50.0360    4.3140
    331      1   35.2910   57.2980   17.9790
    332      1   35.2710   40.3880   30.9845
    333      1   64.7210   48.7670    3.6110
    334      1   64.7760   58.6830    6.6390
    335      1   35.2130   59.4610   19.0240
    336      1   64.7890   56.9330    0.0865
    337      1   35.2100   45.0920   23.6380
    338      1   64.8120   45.5310   43.6775
    339      1   64.9100   43.2520   43.2475
    340      1   64.9150   59.6490    4.0485
    341      1   64.9190   52.7120   47.2900
    342      1   35.0710   45.3280   31.2895
    343      1   64.9380   58.4860    1.8185
    344      1   35.0620   56.6750   25.0270
    345      1   35.0500   43.3110   25.1330
    346      1   34.9370   46.3010   22.9735
    347      1   65.0690   48.8370   45.2665
    348      1   34.9190   50.9580   20.3065
    349      1   65.0950   41.1370   47.3930
    350      1   34.9070   59.3350   21.5050
    351      1   65.0930   47.6010   44.7110
    352      1   65.0980   51.4620   46.6285
    353      1   65.1010   40.8890   44.5890
    354      1   34.8650   41.0210   28.0960
    355      1   34.8300   42.8950   31.4395
    356      1   65.2170   55.8980    6.4040
    357      1   34.7670   53.4430   27.1775
    358      1   34.7630   58.5170   22.7120
    359      1   48.4760   36.0170   32.2395
    360      1   34.7440   46.5020   30.6595
    361      1   65.4610   54.6640    5.9665
    362      1   34.6160   41.7110   30.6060
    363      1   34.6050   52.3520   19.8240
    364      1   34.6010   58.8110   20.2510
    365      1   34.5260   42.7650   26.3250
    366      1   48.4470   62.0530    9.5700
    367      1   34.4490   56.6760   18.9885
    368      1   34.4190   54.5310   26.2520
    369      1   65.5880   54.5060   48.7305
    370      1   34.0660   50.9270   28.2195
    371      1   34.4020   48.8980   21.6250
    372      1   34.3710   55.2500   19.1360
    373      1   34.3500   44.1800   30.8520
    374      1   65.5230   43.5080   49.6315
    375      1   65.7140   52.1920    4.8620
    376      1   34.2620   44.4950   24.6305
    377      1   65.6920   58.4940    4.0225
    378      1   65.6180   44.6330    0.3500
    379      1   65.8100   42.1300   45.2015
    380      1   65.8230   43.2340   44.4580
    381      1   65.8320   50.9050    4.2160
    382      1   34.1680   41.9330   29.1630
    383      1   48.4140   61.0250   10.5020
    384      1   34.1210   48.5080   29.2795
    385      1   65.8870   57.7590    2.5780
    386      1   65.9060   53.2750   48.1215
    387      1   34.0920   50.2790   21.1055
    388      1   65.9140   46.9630    1.8615
    389      1   34.0850   57.4410   20.0915
    390      1   65.9230   45.5180   44.5995
    391      1   65.9470   42.2480   46.8210
    392      1   65.9810   56.2380    0.5595
    393      1   65.9950   48.2390    2.5875
    394      1   33.9930   56.4940   24.0585
    395      1   33.9770   57.3520   22.7630
    396      1   33.8100   52.1900   27.3220
    397      1   66.1790   46.7680   45.1800
    398      1   66.2370   50.7520   46.8810
    399      1   33.7350   46.9030   23.3270
    400      1   66.2740   49.4200   46.2625
    401      1   66.2960   54.4220    4.9055
    402      1   33.6800   46.9250   29.6320
    403      1   66.3420   44.4600   45.1620
    404      1   33.6530   53.1270   20.3945
    405      1   66.3620   54.9870   49.8750
    406      1   33.6260   54.6030   20.1825
    407      1   33.6070   43.1790   28.7245
    408      1   33.6060   56.8000   21.3960
    409      1   66.3940   56.5940    1.9455
    410      1   33.5750   44.2430   29.5795
    411      1   66.4520   43.4990   47.4425
    412      1   33.5470   48.2550   22.6610
    413      1   33.4740   43.5360   27.2520
    414      1   66.5060   43.9330   48.5390
    415      1   66.5520   53.2190    4.3565
    416      1   66.5720   45.4640    0.1560
    417      1   33.4000   54.3560   25.3205
    418      1   66.5030   55.5810    4.2820
    419      1   51.6680   37.3340   42.7655
    420      1   33.3050   45.2050   25.1965
    421      1   33.2710   55.2700   24.0750
    422      1   33.2250   55.3870   21.3400
    423      1   66.8030   46.5960    0.7480
    424      1   66.8330   44.6080   46.5265
    425      1   66.8720   50.6730    2.9655
    426      1   33.1150   51.0080   21.7830
    427      1   66.8990   55.5300    2.7670
    428      1   66.9390   52.4320   48.6655
    429      1   66.9550   47.0510   46.3170
    430      1   33.0370   46.4260   24.5605
    431      1   33.0140   44.8360   26.6325
    432      1   66.9950   49.2750    2.0400
    433      1   32.9900   52.4620   21.5545
    434      1   67.0290   45.1640   48.9865
    435      1   67.0730   48.4670   46.8445
    436      1   32.8580   52.2300   26.1815
    437      1   67.0910   51.1590   48.0860
    438      1   32.8740   54.7150   22.7230
    439      1   67.1660   53.9920    0.6030
    440      1   48.2820   38.3090   32.5760
    441      1   51.7180   63.7500   15.9110
    442      1   48.2810   60.0240   13.2075
    443      1   67.1900   45.9480   47.1015
    444      1   32.8470   53.2170   25.2185
    445      1   51.7240   62.1840    7.3395
    446      1   67.2600   53.0290    2.9855
    447      1   32.7190   49.0760   23.2690
    448      1   67.2900   54.1790    2.1090
    449      1   67.3720   46.1610   48.4030
    450      1   32.6120   53.2660   22.7255
    451      1   32.5970   50.4470   22.9110
    452      1   48.2590   39.2510   33.5415
    453      1   67.4260   52.6690    0.0020
    454      1   51.7450   33.5930   41.5635
    455      1   67.4610   51.7690    2.2405
    456      1   32.5630   47.3380   26.6455
    457      1   51.8620   35.4500   34.1840
    458      1   51.7520   63.5450    7.0780
    459      1   32.4780   47.4420   25.3340
    460      1   67.5390   47.6450    0.1165
    461      1   48.2410   38.9620   39.3975
    462      1   67.5880   48.7130   48.1670
    463      1   32.4720   52.7230   23.9540
    464      1   67.6430   50.0730   48.7900
    465      1   67.6500   49.0480    0.6825
    466      1   67.6520   47.5090   48.9410
    467      1   32.3470   48.7400   24.7085
    468      1   32.3740   51.4250   24.0945
    469      1   67.7510   51.5960    0.7630
    470      1   67.8170   50.2730    0.1305
    471      1   48.2120   40.0360   35.8705
    472      1   48.2080   34.4510   40.4555
    473      1   51.8310   33.4630   35.2790
    474      1   48.1570   59.9730   14.6395
    475      1   51.8910   37.5720   34.6480
    476      1   48.0910   32.8540   34.4000
    477      1   51.9150   60.2340   12.7535
    478      1   51.9190   39.9960   39.0220
    479      1   52.0450   34.7580   42.5850
    480      1   47.9480   62.9570   18.0820
    481      1   52.0750   67.2230    9.5360
    482      1   47.9180   36.8790   40.5790
    483      1   47.8990   33.3840   39.4485
    484      1   52.1040   59.9240   11.3805
    485      1   52.1340   39.4810   36.5945
    486      1   47.8620   33.7020   33.1460
    487      1   52.1870   32.7630   36.6140
    488      1   47.8000   39.5610   38.2310
    489      1   47.7010   60.7710   17.1065
    490      1   52.3040   39.6000   41.5425
    491      1   52.3150   67.5860   10.8490
    492      1   52.4230   66.2160   14.6610
    493      1   47.5390   66.2900   10.3990
    494      1   52.5410   36.4590   34.5275
    495      1   52.5130   67.0660   13.5735
    496      1   47.4830   67.1800   15.6475
    497      1   47.4560   64.2700    9.5010
    498      1   47.4310   67.5630   14.2835
    499      1   47.4260   65.2750   17.8145
    500      1   47.3970   67.0680   11.5135
    501      1   52.6060   40.1550   40.2720
    502      1   52.6180   66.0070    7.6805
    503      1   52.6230   32.4910   39.6270
    504      1   52.5180   34.5060   34.9735
    505      1   47.3550   37.9400   39.8260
    506      1   47.3430   61.5920   18.0750
    507      1   47.3430   32.4050   36.6630
    508      1   47.3130   35.5740   40.3765
    509      1   52.7260   39.9470   37.8005
    510      1   52.7370   61.6130   14.5025
    511      1   47.2400   63.0660    9.7800
    512      1   52.7910   59.9770    8.7410
    513      1   52.8070   38.3670   35.7610
    514      1   47.1930   63.9640   18.4775
    515      1   52.8500   32.9670   41.0210
    516      1   52.9110   61.3920    6.8055
    517      1   47.0790   32.5330   35.1645
    518      1   47.0770   36.1880   31.4310
    519      1   47.0500   60.8670   11.3545
    520      1   52.9600   37.5380   43.5815
    521      1   47.0340   60.1770   12.5665
    522      1   47.0140   38.5610   31.6675
    523      1   52.9870   63.9180   15.1915
    524      1   47.0020   40.0160   33.3890
    525      1   53.0190   60.7590   13.4485
    526      1   53.0270   64.1290    6.4580
    527      1   46.9140   59.6230   15.3035
    528      1   53.1110   66.8400    8.6435
    529      1   46.8780   40.3400   35.6450
    530      1   46.7550   65.2400   10.2080
    531      1   46.7400   59.8180   16.6105
    532      1   46.6630   33.4200   38.6365
    533      1   53.3620   60.2110    7.4695
    534      1   53.3950   39.7800   42.5825
    535      1   53.4170   34.9600   43.2695
    536      1   53.4350   59.6390   10.9040
    537      1   46.5530   33.9260   32.5155
    538      1   53.4480   65.3510    6.8635
    539      1   53.4610   65.1890   14.6665
    540      1   53.4780   32.9060   37.3675
    541      1   46.4500   37.6940   31.0165
    542      1   53.6040   62.7290   14.6515
    543      1   46.3930   32.7850   37.3350
    544      1   46.3730   39.5700   37.8015
    545      1   53.6410   38.8870   43.6535
    546      1   53.6440   67.3980   11.3745
    547      1   46.3530   40.5720   34.3550
    548      1   46.3520   39.7290   32.1325
    549      1   46.3090   66.0410   17.5530
    550      1   53.6960   32.5990   38.8675
    551      1   53.7160   67.0230   12.6690
    552      1   53.7390   59.3860    9.5965
    553      1   46.2400   66.8760   16.3940
    554      1   53.7690   36.3360   44.0145
    555      1   46.2100   35.1310   31.4530
    556      1   46.1680   61.2280   18.8805
    557      1   46.1540   66.8990   12.2365
    558      1   53.7060   34.7620   35.6330
    559      1   46.0970   67.2820   13.6160
    560      1   53.9150   61.8900    5.8245
    561      1   53.9600   36.0710   35.3940
    562      1   46.0200   35.4040   39.5645
    563      1   54.0030   63.2660    5.7385
    564      1   54.0190   40.6700   40.0890
    565      1   45.9610   63.6110   19.1930
    566      1   45.9390   62.8050   10.5550
    567      1   45.9350   40.1990   36.6030
    568      1   45.9240   37.7090   39.2325
    569      1   54.1810   39.9030   37.8730
    570      1   45.8180   59.3510   14.6060
    571      1   45.8140   59.8540   13.3015
    572      1   45.8010   32.8180   34.4960
    573      1   54.2110   33.2660   41.6910
    574      1   54.2170   38.0100   36.1420
    575      1   45.7820   61.6350   11.1980
    576      1   45.6790   34.3160   38.8320
    577      1   54.3640   60.6480   12.8805
    578      1   54.3920   33.9360   36.6760
    579      1   45.5970   59.2850   17.3980
    580      1   54.4150   66.9670    8.9750
    581      1   45.5440   65.0950   10.9135
    582      1   45.5410   62.2400   19.6030
    583      1   54.4780   34.0940   42.9185
    584      1   54.4910   40.7710   42.3815
    585      1   45.5040   33.3630   33.1005
    586      1   54.5570   59.4180    7.0285
    587      1   54.5900   59.8380   11.7095
    588      1   45.3830   38.7410   38.3745
    589      1   45.3830   59.8750   18.6995
    590      1   54.7080   67.1620   10.3925
    591      1   54.7130   65.2300   13.8290
    592      1   45.2530   37.9540   30.2445
    593      1   45.2300   40.6200   31.8820
    594      1   54.7860   40.4670   38.9110
    595      1   54.7880   39.1150   44.5760
    596      1   54.7980   36.8350   35.9220
    597      1   45.1930   36.4790   39.1740
    598      1   45.1920   65.6030   18.2545
    599      1   54.8130   41.1060   41.1580
    600      1   54.8540   65.6720    6.7665
    601      1   54.8770   66.2140   12.9190
    602      1   45.0840   65.9770   11.8280
    603      1   45.0760   64.4830   19.2320
    604      1   54.9260   62.7830   13.9740
    605      1   54.9580   60.9820    5.2185
    606      1   45.0320   41.1320   34.1815
    607      1   54.9910   58.8540    9.2210
    608      1   54.9990   39.0790   37.0480
    609      1   44.9900   33.2270   36.8170
    610      1   55.0190   32.9430   39.4325
    611      1   44.9440   63.8650   10.9815
    612      1   44.9440   66.9630   15.8640
    613      1   55.0860   36.5540   44.7135
    614      1   44.8530   66.9860   14.4490
    615      1   55.1490   59.6920    5.7585
    616      1   44.8270   35.4420   30.7830
    617      1   55.2370   58.6530    7.9240
    618      1   55.2480   63.7360    5.2730
    619      1   55.3070   33.1330   40.8620
    620      1   55.3300   66.4550    7.9150
    621      1   44.6610   33.1310   35.4755
    622      1   44.6340   58.8480   15.2225
    623      1   55.3820   34.1280   37.2805
    624      1   44.6080   39.3520   29.9280
    625      1   55.4030   61.5560   13.2570
    626      1   44.5860   58.5870   16.7075
    627      1   44.5840   40.5930   30.7090
    628      1   55.4230   37.9830   45.2030
    629      1   44.5590   41.4670   32.9660
    630      1   55.4560   41.2180   43.4740
    631      1   44.5230   60.3140   12.7915
    632      1   44.5190   34.1380   37.7640
    633      1   44.5160   40.3990   36.3245
    634      1   44.4970   36.7600   29.9890
    635      1   55.5060   40.4550   44.5975
    636      1   44.4750   61.4050   11.8990
    637      1   55.5600   64.0130   13.6765
    638      1   44.3800   61.9860   20.3430
    639      1   44.3550   59.5350   19.6835
    640      1   55.6780   64.9200    5.8955
    641      1   55.7900   33.4410   38.5370
    642      1   55.7920   34.4740   43.5285
    643      1   44.1520   33.7330   32.5675
    644      1   44.1380   41.1010   35.1930
    645      1   55.9610   59.5120   11.2200
    646      1   55.9700   66.6540   10.7255
    647      1   43.9790   60.6350   20.6040