 Lammps data file for helix_gr
 
        1976 atoms
           1 atom types
 
  -50.00000       150.0000     xlo xhi
  -50.00000       150.0000     ylo yhi
           0   70.00000     zlo zhi
 
  Atoms
 
      1      1   49.9810   33.5020   43.1914
      2      1   50.1170   41.9440   45.0079
      3      1   50.1330   38.5000   42.6020
      4      1   50.2910   35.9720   42.5845
      5      1   50.3600   39.7540   43.3230
      6      1   49.5350   40.7980   43.0206
      7      1   49.3180   41.9360   43.8725
      8      1   50.7820   34.7040   43.2488
      9      1   50.7870   37.2190   42.9940
     10      1   49.1940   36.0380   41.7081
     11      1   49.0950   38.5350   41.5891
     12      1   39.7770   59.4700   36.8186
     13      1   39.7260   56.3100   39.0250
     14      1   39.7260   36.2040   36.4658
     15      1   39.7030   47.6870   47.1737
     16      1   39.5410   37.3180   35.4816
     17      1   39.5150   39.8090   33.6378
     18      1   39.4490   41.0180   32.7446
     19      1   39.3220   57.5250   38.3775
     20      1   39.3150   54.4540   40.6700
     21      1   39.3080   32.0270   41.9951
     22      1   39.1570   50.4290   44.3919
     23      1   39.0860   32.7770   40.6343
     24      1   48.8970   43.4380   46.0551
     25      1   38.9290   49.3780   45.5259
     26      1   38.9270   52.6910   42.3696
     27      1   38.8770   55.6520   39.9665
     28      1   38.7000   34.5620   38.2165
     29      1   38.6580   61.7670   35.4529
     30      1   38.5530   35.5480   37.0874
     31      1   38.4660   53.8500   41.5723
     32      1   38.3840   59.9780   36.8998
     33      1   38.3710   63.6870   33.7015
     34      1   38.2770   37.6630   35.0210
     35      1   38.2730   47.4080   47.5573
     36      1   38.1880   38.8210   34.0137
     37      1   38.1250   51.3360   43.8893
     38      1   38.0850   52.3200   43.0395
     39      1   38.0060   41.1630   32.1426
     40      1   37.9530   58.0210   38.4965
     41      1   37.8880   61.0700   36.1074
     42      1   37.8600   62.7340   34.6115
     43      1   37.8270   42.3270   31.2074
     44      1   37.8030   33.3690   40.2927
     45      1   37.5490   34.1780   39.0810
     46      1   37.4750   56.0850   40.1023
     47      1   37.4450   59.2590   37.6145
     48      1   37.4120   49.2470   45.8682
     49      1   51.2670   40.9260   45.2277
     50      1   48.7300   33.5400   42.3605
     51      1   37.1570   36.0280   36.7927
     52      1   37.1290   48.0770   46.8510
     53      1   37.0660   37.0280   35.7105
     54      1   37.0400   54.2660   41.6346
     55      1   36.9550   57.2400   39.2798
     56      1   36.9120   39.2710   33.5741
     57      1   36.8990   33.2900   41.3287
     58      1   51.3100   39.7820   44.3177
     59      1   36.7960   40.4060   32.5969
     60      1   36.6140   52.6720   42.9569
     61      1   36.7270   50.9800   44.2925
     62      1   48.6520   37.3200   41.1054
     63      1   36.5000   45.7580   48.5051
     64      1   36.4910   55.3130   40.8590
     65      1   36.4680   61.3690   35.7854
     66      1   36.4510   62.3700   34.8040
     67      1   36.2450   34.8280   38.9074
     68      1   36.2410   49.9630   45.1892
     69      1   36.2360   44.4910   49.2030
     70      1   36.0260   53.4480   42.3591
     71      1   36.0120   59.5290   37.4150
     72      1   35.9990   35.6910   37.7482
     73      1   35.8010   51.7760   43.6807
     74      1   35.7800   37.6120   35.4410
     75      1   35.7210   47.5870   46.9196
     76      1   35.7140   38.6970   34.3126
     77      1   35.7020   34.0220   41.2776
     78      1   48.5680   40.9780   41.8614
     79      1   35.5810   62.9490   33.8254
     80      1   35.5750   33.5510   43.7507
     81      1   35.5680   60.6600   36.2789
     82      1   35.5590   40.8130   32.3484
     83      1   35.4850   57.4880   39.0936
     84      1   35.4560   46.3570   47.6476
     85      1   35.4220   41.8990   31.4307
     86      1   35.3030   34.7510   40.0666
     87      1   35.2200   33.9080   45.1283
     88      1   35.0560   58.5610   38.0912
     89      1   35.0340   43.7040   48.8803
     90      1   35.0280   55.5520   40.6168
     91      1   35.0120   34.1790   42.5502
     92      1   34.9620   42.3060   49.3654
     93      1   34.9170   49.4120   45.3306
     94      1   34.7400   36.3920   37.6719
     95      1   34.6790   48.2060   46.0782
     96      1   34.6120   37.3120   36.4476
     97      1   34.5760   53.5410   42.1183
     98      1   34.5420   56.5720   39.6739
     99      1   34.4080   39.3470   34.1635
    100      1   34.3690   40.3300   33.1772
    101      1   48.4340   34.8090   41.5422
    102      1   34.3160   51.4010   43.6576
    103      1   34.2980   62.3330   33.7827
    104      1   34.2980   34.9840   45.3418
    105      1   34.2720   60.5450   35.8939
    106      1   34.2290   45.6100   47.4033
    107      1   34.1310   39.9500   48.9167
    108      1   34.1250   35.5920   40.0757
    109      1   34.1190   54.5770   41.1705
    110      1   34.1080   42.4810   31.2816
    111      1   34.0710   44.2240   47.9381
    112      1   34.0240   41.3680   48.7172
    113      1   33.9880   35.1010   42.6251
    114      1   33.8730   50.1670   44.3849
    115      1   33.8080   36.3700   38.8402
    116      1   33.7470   61.2550   34.7144
    117      1   48.3680   39.9500   41.1537
    118      1   33.6710   52.3690   42.7119
    119      1   33.6290   35.5500   44.0398
    120      1   33.5590   36.8760   46.7831
    121      1   33.5580   58.5660   37.4542
    122      1   33.5010   35.7840   41.3616
    123      1   33.4670   47.5820   45.8248
    124      1   33.4620   39.0310   47.9129
    125      1   33.3870   38.1380   36.4308
    126      1   33.2820   46.2160   46.4219
    127      1   33.2480   39.0880   35.2751
    128      1   33.2250   59.4400   36.3741
    129      1   33.1560   56.6090   39.0789
    130      1   33.1250   41.0130   33.1961
    131      1   33.0860   41.8480   47.6350
    132      1   33.0600   43.3060   47.3410
    133      1   48.3060   42.7790   43.2817
    134      1   33.0000   42.0780   32.2189
    135      1   32.8020   36.7350   44.1917
    136      1   32.7830   37.4240   45.5490
    137      1   32.7770   54.4900   40.6546
    138      1   32.7660   37.2990   38.8479
    139      1   32.6820   49.5250   44.1315
    140      1   32.6310   39.5210   46.7684
    141      1   32.6000   57.5300   37.8616
    142      1   32.5540   60.5870   34.4568
    143      1   32.5200   36.8740   41.4078
    144      1   32.5140   48.1460   44.8238
    145      1   32.4730   38.1480   37.6628
    146      1   32.3950   52.2590   42.1106
    147      1   32.3620   40.9200   46.6914
    148      1   32.2990   55.5020   39.5052
    149      1   32.2650   59.5060   35.5180
    150      1   32.2430   45.3800   45.8724
    151      1   32.2400   38.7200   45.5644
    152      1   32.1810   37.3750   42.8239
    153      1   32.1780   43.8560   46.2567
    154      1   32.1310   39.9630   35.3360
    155      1   32.1030   37.6100   40.1289
    156      1   32.0470   40.9050   34.2440
    157      1   31.9630   60.8110   33.2073
    158      1   31.9570   53.3430   41.0011
    159      1   31.8310   42.6140   32.6459
    160      1   31.7290   49.9700   43.1207
    161      1   31.5940   51.1600   42.2597
    162      1   31.5650   41.4670   45.5070
    163      1   31.5490   39.2850   44.3135
    164      1   31.4760   39.2340   37.6796
    165      1   31.4710   38.6310   42.9303
    166      1   31.4630   47.3360   44.2764
    167      1   31.4070   42.9450   45.3670
    168      1   31.3890   43.8490   31.9270
    169      1   31.3770   45.9350   44.7286
    170      1   31.2910   41.8520   34.0256
    171      1   31.2730   40.1000   36.5085
    172      1   31.2510   57.0940   37.0405
    173      1   31.2450   38.7690   40.2129
    174      1   31.2350   58.6590   35.1099
    175      1   51.8780   37.2670   43.9327
    176      1   31.1460   55.1870   38.8010
    177      1   31.1430   40.6330   44.3345
    178      1   30.9530   39.2880   41.5982
    179      1   30.9130   39.5440   38.9487
    180      1   30.7890   53.1320   40.0722
    181      1   30.6760   43.4850   44.1525
    182      1   30.6560   57.4930   35.6867
    183      1   30.6540   49.0430   42.5201
    184      1   30.6530   55.8590   37.5536
    185      1   30.5820   44.9530   43.8977
    186      1   30.5560   47.7870   42.9835
    187      1   30.5440   58.7770   33.6756
    188      1   30.5430   42.0630   35.1078
    189      1   30.5060   41.2580   43.0409
    190      1   30.4560   53.9630   39.0215
    191      1   30.4550   50.9730   41.1810
    192      1   30.4420   41.2530   36.4987
    193      1   30.4210   44.5010   32.4807
    194      1   30.3950   40.5680   41.6878
    195      1   30.1980   42.6340   42.9989
    196      1   30.1740   40.7920   39.0320
    197      1   30.0940   45.9640   31.5476
    198      1   30.0880   51.8600   40.1030
    199      1   29.9480   41.2970   40.3865
    200      1   29.9340   49.6560   41.2706
    201      1   29.9220   45.4250   42.6720
    202      1   29.9060   41.6350   37.7531
    203      1   29.8100   46.8600   42.2100
    204      1   29.8080   43.3410   35.1351
    205      1   29.7540   57.8090   32.8727
    206      1   29.6550   54.8800   36.8802
    207      1   29.6540   43.3430   41.7585
    208      1   29.6240   56.4830   34.8467
    209      1   29.5620   44.5130   34.0263
    210      1   29.5450   53.7200   37.7874
    211      1   29.5160   42.6970   40.4978
    212      1   29.4670   44.6120   41.6577
    213      1   29.3290   56.6510   33.4082
    214      1   29.3210   42.9230   37.8217
    215      1   47.9300   31.3730   43.5988
    216      1   29.2750   46.9760   32.1608
    217      1   29.2210   55.1040   35.5271
    218      1   29.2070   51.4340   38.9221
    219      1   29.1880   46.8120   40.8289
    220      1   29.1680   49.1510   40.1191
    221      1   29.1530   43.4450   39.1937
    222      1   29.1210   43.8190   36.5946
    223      1   29.0420   45.4360   40.5342
    224      1   28.9970   52.4630   37.6572
    225      1   28.9130   47.7440   39.9077
    226      1   28.8920   45.7610   34.4001
    227      1   28.8650   55.6640   32.5339
    228      1   28.8600   44.8590   39.3022
    229      1   28.8090   50.0420   38.8486
    230      1   28.7770   46.9040   33.5097
    231      1   47.8770   42.2300   41.9062
    232      1   28.6710   45.1910   36.7591
    233      1   28.6220   54.0220   34.6157
    234      1   28.5780   45.7100   38.0947
    235      1   28.5610   54.4140   33.0610
    236      1   28.5590   49.3350   32.2462
    237      1   28.5330   46.1060   35.7154
    238      1   28.4820   47.1850   38.3859
    239      1   28.4710   51.9650   36.4308
    240      1   28.4450   53.2930   32.0621
    241      1   28.3770   52.6760   35.0336
    242      1   28.3560   49.6000   37.4080
    243      1   28.3340   48.1070   34.4281
    244      1   28.3010   51.7910   32.5696
    245      1   28.2840   48.1490   37.1567
    246      1   28.2620   49.1940   33.8954
    247      1   52.1750   38.5760   44.5347
    248      1   28.2430   47.5890   35.8218
    249      1   28.2280   50.4940   36.2551
    250      1   28.1720   51.5660   33.9871
    251      1   28.1100   50.2620   34.7361
    252      1   47.7570   44.1140   45.3082
    253      1   47.7210   32.4170   42.5215
    254      1   47.6520   43.8090   43.8704
    255      1   47.5630   37.3680   40.1674
    256      1   47.4240   39.9770   40.0890
    257      1   47.2000   34.8220   40.7085
    258      1   47.0220   43.0540   41.1306
    259      1   46.9770   38.6680   39.5038
    260      1   46.8710   36.1000   39.9371
    261      1   46.7080   41.1340   39.4261
    262      1   46.6480   44.9740   45.8836
    263      1   46.6440   44.6320   42.9835
    264      1   46.5490   42.6130   39.8531
    265      1   46.4770   32.5680   41.7774
    266      1   46.4420   44.4270   41.6192
    267      1   46.2520   33.7050   40.7834
    268      1   46.0250   38.5670   38.6274
    269      1   45.8320   40.7570   38.2585
    270      1   45.7830   43.6390   39.0327
    271      1   45.7780   45.6740   43.6282
    272      1   45.4110   37.3280   38.4489
    273      1   45.6880   45.3520   40.7883
    274      1   45.6770   45.7110   45.0898
    275      1   45.5900   30.8590   43.3104
    276      1   45.5900   39.4180   38.0597
    277      1   45.5670   36.2270   38.9837
    278      1   45.5020   45.0050   39.4793
    279      1   45.4250   31.7510   42.1617
    280      1   45.2530   43.1280   37.7370
    281      1   45.1450   41.7020   37.3982
    282      1   45.0930   46.4530   41.3441
    283      1   45.0440   33.8970   40.0526
    284      1   44.9820   46.5700   42.8190
    285      1   44.9530   45.9620   38.5350
    286      1   44.7730   35.0840   39.1076
    287      1   44.6700   57.1360   33.3018
    288      1   44.6460   44.0060   36.7668
    289      1   44.6270   45.4730   37.1182
    290      1   44.6220   55.6420   33.2661
    291      1   44.5650   47.2970   38.9711
    292      1   44.5390   46.3930   45.7443
    293      1   44.5190   47.4400   40.4712
    294      1   44.4750   38.9190   37.1959
    295      1   44.4680   46.0250   47.1702
    296      1   44.3200   37.5800   37.5298
    297      1   44.2190   46.4820   36.1410
    298      1   44.2060   41.1910   36.3251
    299      1   44.3460   52.4390   33.8058
    300      1   44.1760   48.4370   38.0324
    301      1   44.1560   48.1120   36.6184
    302      1   44.0690   32.0230   41.4743
    303      1   44.0460   51.0580   34.1257
    304      1   44.0170   54.9590   34.4715
    305      1   43.9960   53.3490   34.6038
    306      1   43.9810   49.0500   35.5565
    307      1   43.9630   50.4720   35.4837
    308      1   43.9410   57.9200   34.1915
    309      1   43.9390   47.4910   43.5617
    310      1   43.9210   43.5300   35.4781
    311      1   43.9130   33.0330   40.3599
    312      1   43.8790   48.4510   41.0333
    313      1   43.7790   59.2030   34.0739
    314      1   43.7750   48.5940   34.1145
    315      1   43.7610   45.8790   34.8257
    316      1   43.7590   39.6280   36.3398
    317      1   43.7000   49.6750   38.6848
    318      1   43.6800   51.2020   36.5274
    319      1   43.6500   49.4020   32.8601
    320      1   43.5980   47.2780   45.0254
    321      1   43.5880   42.1430   35.3752
    322      1   43.5450   35.3360   38.3376
    323      1   43.5230   52.8320   36.1095
    324      1   43.4900   46.9100   33.8114
    325      1   43.4480   49.5450   40.1856
    326      1   43.4450   44.3950   34.5142
    327      1   43.4110   48.3850   42.6489
    328      1   43.3710   50.9910   38.0695
    329      1   43.3620   55.8710   35.5292
    330      1   43.3530   36.6650   37.4052
    331      1   43.2380   57.3380   35.2135
    332      1   43.0510   30.6820   43.3447
    333      1   42.8860   53.9380   37.1546
    334      1   42.8670   31.4380   42.0917
    335      1   42.7850   46.3350   32.5241
    336      1   42.7790   61.3200   34.0459
    337      1   42.7210   60.0440   34.6801
    338      1   42.7040   55.3670   36.7059
    339      1   42.7040   39.3150   35.5908
    340      1   42.6610   52.1050   38.9179
    341      1   42.5950   33.3220   39.7264
    342      1   42.5940   50.5180   40.8534
    343      1   42.5650   43.9320   33.4551
    344      1   42.4980   34.4380   38.6484
    345      1   42.4200   49.2240   43.0962
    346      1   42.3960   41.5540   34.3812
    347      1   42.3640   47.6870   45.7919
    348      1   42.3340   53.4410   38.4076
    349      1   42.2400   58.1540   35.9478
    350      1   42.1770   44.8410   32.4786
    351      1   42.1440   36.8990   36.6730
    352      1   42.1350   51.7620   40.2010
    353      1   42.0900   62.4670   33.7785
    354      1   42.0480   47.0330   47.1520
    355      1   42.0340   50.2620   42.1491
    356      1   42.0330   40.3630   34.6017
    357      1   42.0100   38.1750   35.8288
    358      1   41.8910   59.6420   35.4788
    359      1   41.8660   42.4940   33.4292
    360      1   41.7330   56.1740   37.4584
    361      1   41.5700   31.8140   41.5597
    362      1   41.4950   49.2920   44.1819
    363      1   41.4540   32.6880   40.3088
    364      1   41.4070   57.5430   36.9852
    365      1   41.3780   48.5410   45.2956
    366      1   41.3430   54.3230   39.0754
    367      1   41.2250   34.7800   38.0254
    368      1   41.0630   35.9120   36.9817
    369      1   41.0500   52.5860   40.8436
    370      1   40.9240   55.6250   38.5749
    371      1   40.7820   51.0000   42.7112
    372      1   40.7330   46.9940   47.7820
    373      1   40.7320   39.5640   34.2972
    374      1   40.7290   62.6270   34.2356
    375      1   40.6700   38.2300   35.1330
    376      1   40.6420   60.2910   35.8799
    377      1   40.5900   42.1550   32.5766
    378      1   40.5840   53.8100   40.2290
    379      1   40.5050   31.4850   42.4564
    380      1   40.4780   30.9020   43.9740
    381      1   40.3950   50.3430   43.8333
    382      1   40.2480   43.2840   31.6113
    383      1   40.2410   52.0710   42.0819
    384      1   40.1930   58.2090   37.4542
    385      1   40.1670   33.1100   39.8447
    386      1   40.0480   61.5880   35.2261
    387      1   40.0350   34.0850   38.6386
    388      1   40.0320   48.5790   46.0481
    389      1   49.9650   56.4470   13.7760
    390      1   49.9570   58.8170    9.0069
    391      1   49.9460   59.9270    8.1599
    392      1   50.1420   71.4580   14.4305
    393      1   50.1440   71.7730   15.9166
    394      1   50.2620   70.3030   11.6718
    395      1   50.3090   56.1000   15.1774
    396      1   49.6680   67.3880    8.9250
    397      1   50.3950   69.4460   10.3999
    398      1   50.4640   62.4670    6.8978
    399      1   50.5050   65.0720    7.2436
    400      1   50.5630   56.8800   11.2371
    401      1   49.3980   62.3910    7.8526
    402      1   49.3540   68.4580    9.9750
    403      1   49.3080   65.0030    8.1095
    404      1   49.2770   57.8230   11.1594
    405      1   49.1280   61.0970    8.4434
    406      1   50.8760   59.9660    7.0812
    407      1   49.1030   58.7610   10.0975
    408      1   50.9170   67.4270    8.1711
    409      1   50.9540   56.2400   12.6021
    410      1   50.9930   63.8030    6.5457
    411      1   50.9930   57.6780    8.8893
    412      1   60.0070   62.4720    0.3997
    413      1   60.0470   67.2330    5.3802
    414      1   60.0630   68.9740    9.0706
    415      1   48.9730   70.2980   12.4075
    416      1   60.2700   69.3160   11.6396
    417      1   60.2990   38.5660    0.4501
    418      1   60.3690   67.9290   16.6012
    419      1   60.3830   51.2260   10.9907
    420      1   60.4660   39.7490    1.3713
    421      1   60.5030   55.8310   15.7871
    422      1   60.5940   42.1170    3.0779
    423      1   60.6260   43.2630    3.9039
    424      1   60.6790   68.2860    7.6790
    425      1   60.6990   52.1510   12.0729
    426      1   60.7080   65.4040    3.0807
    427      1   60.7270   45.6020    5.7302
    428      1   60.7500   46.8360    6.7865
    429      1   39.2410   63.6620   16.1693
    430      1   60.8100   68.9110   10.2165
    431      1   60.9310   64.3710    1.9775
    432      1   61.0650   49.2910    9.2204
    433      1   48.8830   70.9550   13.7249
    434      1   51.1240   61.2130    6.4099
    435      1   61.3230   54.1470   14.0539
    436      1   61.4050   67.4470   15.7332
    437      1   61.4350   50.3520   10.3677
    438      1   48.8550   71.7570   16.6544
    439      1   61.4650   66.7820    5.1800
    440      1   48.8510   66.2150    8.8613
    441      1   61.5680   55.2700   14.9660
    442      1   61.7090   40.0370    1.9229
    443      1   61.8020   41.2200    2.8602
    444      1   61.8110   65.9080    3.9655
    445      1   61.8320   43.5510    4.6319
    446      1   61.8410   65.4380   17.1164
    447      1   61.8590   44.7700    5.5853
    448      1   61.9110   47.2000    7.6090
    449      1   61.9640   57.6650   16.4542
    450      1   61.9640   67.7060    7.5243
    451      1   62.0710   52.4160   12.3844
    452      1   62.0940   48.3520    8.6485
    453      1   62.1850   66.2280   16.0384
    454      1   62.2110   68.1250   10.0667
    455      1   62.3220   64.1060   17.1913
    456      1   62.3350   63.9220    1.6492
    457      1   62.4030   53.5290   13.2958
    458      1   62.4480   66.9890    6.2468
    459      1   62.5410   62.8960    0.5866
    460      1   48.7300   63.6570    8.3664
    461      1   62.7490   67.6080    8.7661
    462      1   62.7720   67.7650   11.2630
    463      1   62.7950   50.5710   10.7170
    464      1   62.8320   38.1330    0.3850
    465      1   62.8700   55.9290   14.9219
    466      1   62.8980   39.2450    1.3972
    467      1   62.9370   61.3540   16.9239
    468      1   51.2970   66.3240    7.2415
    469      1   63.0050   57.1870   15.5792
    470      1   63.0680   42.7510    4.2966
    471      1   63.0690   41.5670    3.3502
    472      1   63.1020   59.9210   16.5557
    473      1   63.1160   51.7090   11.6522
    474      1   63.1460   45.1340    6.1845
    475      1   63.1750   46.3310    7.1519
    476      1   63.1780   65.7740   14.9982
    477      1   63.2240   65.3280    3.7835
    478      1   63.2570   66.5730   13.7228
    479      1   63.3440   63.6900   16.1665
    480      1   63.5050   48.6600    9.0958
    481      1   63.5250   64.3750    2.5704
    482      1   63.7300   66.2990    6.1495
    483      1   63.7350   62.3540   16.0685
    484      1   48.6250   57.0630   13.5345
    485      1   63.7730   54.1400   13.3105
    486      1   63.8360   49.8170   10.0170
    487      1   63.8490   66.8340   11.2707
    488      1   63.8550   64.5690   15.0507
    489      1   63.9960   55.4170   14.0245
    490      1   64.0460   66.7100    8.7752
    491      1   64.0950   66.1670   12.5265
    492      1   64.1610   65.5110    4.9007
    493      1   64.1630   59.4190   15.5540
    494      1   64.1650   58.0070   15.1564
    495      1   64.1870   39.7130    1.6954
    496      1   51.4250   56.6790   10.0576
    497      1   64.2660   40.8520    2.7118
    498      1   64.3550   43.2350    4.6907
    499      1   64.4070   44.3990    5.6259
    500      1   64.4250   52.2220   11.7320
    501      1   64.4750   46.7610    7.5040
    502      1   64.5430   66.1180    7.4361
    503      1   51.4570   71.4090   13.7487
    504      1   64.5860   66.2960   10.0835
    505      1   64.6220   47.9380    8.4084
    506      1   64.7500   61.9440   15.0031
    507      1   64.7510   53.5410   12.4803
    508      1   64.7750   64.1990   13.9181
    509      1   64.7900   63.7500    2.4829
    510      1   51.4870   70.9100   12.3081
    511      1   51.4910   71.8280   16.7132
    512      1   64.9360   64.9990   12.6693
    513      1   64.9360   62.7390    1.2187
    514      1   65.0130   60.4430   14.8568
    515      1   51.5130   55.8630   15.5274
    516      1   65.1450   56.2190   13.7207
    517      1   65.1800   57.5510   14.1960
    518      1   65.2360   50.3650   10.0975
    519      1   65.2800   62.9110   13.9685
    520      1   65.3700   64.7250    4.8951
    521      1   65.3750   39.2080    0.7749
    522      1   65.5040   51.6320   10.8780
    523      1   65.5050   41.4630    2.9463
    524      1   65.5900   65.2320   10.1010
    525      1   65.5960   42.6610    3.9795
    526      1   65.6520   44.9480    5.8646
    527      1   65.6610   65.2130    7.5656
    528      1   65.6910   46.1130    6.7753
    529      1   65.6940   64.6020   11.4310
    530      1   65.6990   63.9160    3.6897
    531      1   65.9750   59.9810   13.7858
    532      1   66.0140   54.3600   12.2017
    533      1   66.0270   48.5660    8.5113
    534      1   66.0580   64.6060    6.2734
    535      1   66.1390   58.5010   13.5219
    536      1   66.1470   62.4840   12.8282
    537      1   66.1470   62.0240    1.2306
    538      1   66.1680   64.7410    8.9222
    539      1   66.1860   55.7610   12.7288
    540      1   66.3100   49.8360    9.2792
    541      1   66.4000   63.3750   11.5395
    542      1   51.6450   58.8340    6.7277
    543      1   66.5790   61.0550   12.7918
    544      1   51.6660   69.3870    9.6824
    545      1   48.3290   57.7980   12.2829
    546      1   66.7250   40.0170    0.7861
    547      1   66.7770   41.1340    1.9411
    548      1   66.7810   52.4190   10.6435
    549      1   66.8110   43.3470    4.0726
    550      1   66.8150   44.4690    5.0239
    551      1   66.8350   63.0200    3.7576
    552      1   66.9060   46.8230    6.8390
    553      1   66.9660   53.8280   11.2196
    554      1   66.9990   63.6290    9.0111
    555      1   67.0360   58.0950   12.4810
    556      1   67.0960   48.0990    7.6699
    557      1   67.1180   56.6880   12.1618
    558      1   67.1270   62.8930   10.2984
    559      1   67.1330   63.5180    6.3630
    560      1   67.1370   62.1390    2.5627
    561      1   67.4210   60.5520   11.6277
    562      1   51.7500   57.6550    7.6881
    563      1   67.5680   63.0130    7.7441
    564      1   67.5820   62.7410    5.0526
    565      1   67.5950   50.6300    9.0300
    566      1   67.7140   59.0710   11.5808
    567      1   67.7160   61.4990   10.4230
    568      1   67.7980   51.9470    9.6138
    569      1   67.8920   43.0130    3.0254
    570      1   67.9400   45.2320    4.9378
    571      1   67.9660   41.9670    1.8648
    572      1   67.9910   46.4210    5.8422
    573      1   67.9930   56.2170   11.0831
    574      1   68.0130   54.7590   10.6680
    575      1   68.2020   61.1140    2.6334
    576      1   68.2980   48.9100    7.3948
    577      1   68.3570   61.7320    7.8078
    578      1   68.3770   60.9530    9.1994
    579      1   68.4840   58.6340   10.3852
    580      1   68.4920   61.6190    5.1870
    581      1   68.5140   50.1710    7.9870
    582      1   68.6800   57.1870   10.2060
    583      1   48.1310   68.4390   10.7674
    584      1   51.8750   68.4380    8.5036
    585      1   68.7910   41.7920    0.7539
    586      1   68.8010   52.8450    9.0636
    587      1   68.8100   60.8730    3.9641
    588      1   68.8310   54.2480    9.5410
    589      1   68.8330   61.1160    6.5618
    590      1   68.8520   59.5690    9.2085
    591      1   48.1070   60.9890    9.4633
    592      1   68.9910   43.9730    2.8126
    593      1   69.0170   45.1010    3.8374
    594      1   69.0310   47.2390    5.5594
    595      1   69.1480   48.4520    6.2804
    596      1   48.0710   59.7620   10.2704
    597      1   69.4340   59.0710    7.9639
    598      1   69.4340   59.8390    6.7081
    599      1   69.4420   56.6600    8.8865
    600      1   69.5060   51.0600    7.3997
    601      1   69.5520   59.7330    4.0985
    602      1   69.5720   55.1790    8.6359
    603      1   69.5900   52.4170    7.8918
    604      1   69.8270   57.6090    7.8211
    605      1   69.8350   59.2030    5.4691
    606      1   69.8680   58.8160    2.8476
    607      1   69.8870   43.9190    1.4119
    608      1   69.9100   47.1080    4.3827
    609      1   69.9470   46.1590    3.5651
    610      1   70.4130   56.8300    0.4816
    611      1   70.1450   49.1990    5.4481
    612      1   70.2870   50.5460    5.9745
    613      1   70.3080   57.0410    6.6409
    614      1   70.3160   57.8670    5.5447
    615      1   70.3190   53.3500    6.9895
    616      1   70.5040   57.5390    3.1633
    617      1   70.5800   48.3840    4.2420
    618      1   70.6220   55.6220    6.3266
    619      1   70.6660   57.1030    4.5325
    620      1   70.6670   45.1170    1.1410
    621      1   70.6830   46.2600    2.3331
    622      1   70.8020   56.5220    2.1343
    623      1   70.8500   52.7910    5.7617
    624      1   71.0380   55.6130    5.0666
    625      1   70.9020   51.3440    5.2388
    626      1   47.8930   56.4810   15.8466
    627      1   47.8840   69.4220   11.9273
    628      1   71.1990   48.7590    3.0156
    629      1   71.2090   54.4690    0.2121
    630      1   71.2600   55.2100    2.5347
    631      1   71.2660   47.5840    1.9236
    632      1   52.1350   61.2970    5.3928
    633      1   71.3910   51.1310    3.7590
    634      1   71.4800   54.1550    1.5435
    635      1   71.5570   52.4750    3.2795
    636      1   71.5590   50.1350    2.6845
    637      1   71.6560   47.8930    0.5341
    638      1   71.7110   52.7740    1.9215
    639      1   71.8340   51.6880    0.8484
    640      1   71.8470   50.3930    1.1319
    641      1   52.1910   63.8850    5.6427
    642      1   52.2870   55.6020   13.0270
    643      1   47.6690   66.0760    9.6712
    644      1   47.6030   70.8840   14.4921
    645      1   47.5960   63.5660    9.2967
    646      1   47.5740   71.3710   15.9355
    647      1   47.5730   57.0370   14.5509