 Lammps data file for helix_gr
 
        1662 atoms
           1 atom types
 
  -50.00000       150.0000     xlo xhi
  -50.00000       150.0000     ylo yhi
           0   30.00000     zlo zhi
 
  Atoms
 
      1      1   49.9950   60.3010   15.0768
      2      1   50.0070   28.8100   25.8798
      3      1   49.9820   71.6060    5.2701
      4      1   49.9700   67.5650   14.8317
      5      1   49.9580   60.1820    0.0222
      6      1   49.9530   58.1150   13.4490
      7      1   50.0580   56.1070    5.9790
      8      1   49.8850   61.6050   15.6207
      9      1   49.8800   42.7850   17.7633
     10      1   50.1320   40.2640   29.8215
     11      1   50.1380   34.5940   14.3592
     12      1   49.8590   41.9150   16.5708
     13      1   49.8510   31.1620   15.9840
     14      1   49.8470   65.6120   29.3931
     15      1   49.8440   71.8700    6.7314
     16      1   50.1640   29.3180   18.2160
     17      1   49.8350   71.1200   11.0304
     18      1   50.1690   66.2780   15.4008
     19      1   50.1750   34.7970    0.7593
     20      1   50.1970   62.8000   29.1303
     21      1   49.7940   42.7540   27.0582
     22      1   49.7810   57.2260   12.3273
     23      1   49.7540   70.3370    2.6778
     24      1   49.7510   44.0270   21.8919
     25      1   49.7440   43.8460   20.4879
     26      1   49.7040   29.5250   27.0984
     27      1   49.7020   66.9050   29.8881
     28      1   50.3130   33.4180    0.4011
     29      1   50.3180   28.3580   20.5938
     30      1   50.3360   55.9890    7.3830
     31      1   50.7410   71.6760    8.9190
     32      1   49.6100   57.1060    3.2970
     33      1   49.6070   69.3650    1.5771
     34      1   50.4530   41.5100   29.0763
     35      1   50.4900   64.0470   15.7167
     36      1   49.4850   32.2920   15.0837
     37      1   50.5300   33.3120   14.8629
     38      1   49.4350   41.8510   28.1319
     39      1   49.4340   57.9960    2.0775
     40      1   49.4300   28.2070   23.5236
     41      1   50.5880   37.8160    0.9606
     42      1   49.4290   56.2030    9.8136
     43      1   50.6120   43.9140   24.2703
     44      1   50.6160   58.0890    1.2192
     45      1   50.6160   69.4120   13.3248
     46      1   50.7180   39.7760   15.2307
     47      1   49.3460   37.1960    0.5754
     48      1   50.6660   37.1160   14.4306
     49      1   50.6660   30.9110   28.9659
     50      1   49.3220   37.3820   13.9611
     51      1   49.3080   69.9160   13.0827
     52      1   49.2990   31.4990   29.0952
     53      1   49.2940   39.8350   14.6463
     54      1   50.7130   28.7880   19.3503
     55      1   49.2570   43.6010   24.7752
     56      1   49.2470   71.6320    9.7050
     57      1   49.2430   64.3570   16.0947
     58      1   49.2340   55.9500    8.3682
     59      1   50.7960   28.1420   23.1279
     60      1   50.8210   61.1620   29.2050
     61      1   50.8420   58.9510    0.2748
     62      1   50.8520   56.4990    3.6672
     63      1   50.8310   71.7670    7.6392
     64      1   50.8690   29.9750   27.9849
     65      1   50.8740   44.0590   22.8363
     66      1   49.1150   32.7450   29.7708
     67      1   50.8890   62.7530   15.4653
     68      1   50.9160   40.9180   16.1721
     69      1   49.0740   35.6730    0.5409
     70      1   50.9330   68.1280   14.2113
     71      1   50.9600   67.6040   29.8899
     72      1   50.9680   68.8070    0.7743
     73      1   49.0260   63.1740   29.5236
     74      1   50.9840   71.4150    4.5282
     75      1   50.9890   43.4580   19.8882
     76      1   39.9910   53.2080   21.1677
     77      1   60.0560   63.5070   26.7432
     78      1   60.0610   43.3580    5.3973
     79      1   39.9350   62.1290   18.8952
     80      1   39.9240   69.1970   11.6220
     81      1   60.0770   66.7610   29.0406
     82      1   60.1000   35.9420    2.9709
     83      1   60.1070   32.3290   20.1270
     84      1   39.8890   52.2420    6.3648
     85      1   60.1120   57.6740   11.4153
     86      1   39.8760   30.8620   18.1569
     87      1   39.8700   46.3470    8.8866
     88      1   39.8700   57.6270   20.1915
     89      1   39.8680   43.2820   25.9893
     90      1   60.1590   32.8990    0.5334
     91      1   60.1690   61.4600   12.2349
     92      1   60.1830   47.1550   21.0078
     93      1   39.8160   32.8260   25.3245
     94      1   60.1980   66.3430   10.9665
     95      1   39.7770   38.1800   27.2298
     96      1   60.2280   68.7730    8.0238
     97      1   39.7630   49.0770   22.9644
     98      1   60.2500   57.7310   24.7731
     99      1   39.7460   54.4110    5.1054
    100      1   39.7010   42.4270    9.7263
    101      1   48.9690   65.7140   15.9162
    102      1   39.6910   56.2470   20.5746
    103      1   51.0310   42.8280   18.4800
    104      1   60.3170   40.6540    4.8642
    105      1   60.3230   52.8770    9.0519
    106      1   60.3370   63.9160   11.9355
    107      1   39.6620   48.7540    7.9620
    108      1   48.9640   28.5520   24.8874
    109      1   60.3750   50.5110   22.6200
    110      1   39.6230   34.0440   26.0805
    111      1   39.6230   36.7770   27.0669
    112      1   39.6000   63.3770   18.3306
    113      1   48.9600   70.7140   11.9691
    114      1   51.0420   39.4590    0.6240
    115      1   60.4220   44.7860    5.8665
    116      1   60.4290   68.8460    2.7117
    117      1   39.5680   68.5070    6.6990
    118      1   48.9560   29.4060   17.8551
    119      1   60.4380   35.5470   18.2697
    120      1   39.5600   61.3230    2.8683
    121      1   39.5490   59.9070   19.7349
    122      1   60.4720   64.4420   27.3717
    123      1   51.0480   70.8260    3.1830
    124      1   39.5170   45.6150   24.8850
    125      1   39.5080   67.4300   14.9490
    126      1   39.4980   31.5020   16.8399
    127      1   60.5050   51.6080    8.4486
    128      1   60.5300   60.2040   25.3590
    129      1   39.4660   35.3680   12.4317
    130      1   39.4500   62.6800    2.9451
    131      1   39.4140   33.3220   14.1945
    132      1   39.4140   43.7300    9.3285
    133      1   39.4100   30.8670   20.6397
    134      1   60.6050   31.7650   21.4527
    135      1   51.0610   43.3470   26.9538
    136      1   60.6380   60.1170   11.9382
    137      1   60.6800   33.9980    1.4841
    138      1   60.6840   67.1750    9.8913
    139      1   60.6870   47.5590    6.7968
    140      1   39.3060   50.9220    6.8328
    141      1   39.3060   31.6180   23.1387
    142      1   60.7140   69.0910    5.1915
    143      1   60.7180   48.9430    7.3185
    144      1   39.2730   65.3780    3.8682
    145      1   60.7320   33.5010   19.5603
    146      1   60.7330   62.6510   26.3340
    147      1   60.7660   49.3100   21.9015
    148      1   39.1990   66.5620    4.6734
    149      1   60.8390   31.8570   28.5900
    150      1   60.8980   68.1460    1.3698
    151      1   39.1480   39.9920   10.2492
    152      1   39.1320   47.8790   23.8065
    153      1   39.1210   51.4290   22.2144
    154      1   39.1210   68.0570   13.6662
    155      1   60.8800   65.0440   11.2230
    156      1   39.1180   56.6860    4.0827
    157      1   60.8840   42.1280    5.3967
    158      1   60.9190   32.4690   29.5947
    159      1   60.9280   52.8970   23.2734
    160      1   60.9370   38.4310   18.0618
    161      1   60.9390   44.7420   19.6446
    162      1   60.9480   38.3090    4.1127
    163      1   39.0410   65.7100   16.6398
    164      1   60.9720   62.5690   11.8779
    165      1   39.0240   53.0880    5.6622
    166      1   39.0210   31.1080   19.2837
    167      1   51.0980   35.6860   14.5104
    168      1   48.9010   28.2620   20.9163
    169      1   38.9810   40.5380   26.7297
    170      1   61.0430   31.1430   24.2595
    171      1   38.9290   61.0270   19.3860
    172      1   51.1090   56.0270    5.0481
    173      1   38.9030   32.5770   24.1929
    174      1   61.0990   40.0020   18.2301
    175      1   38.8630   58.6950   20.2119
    176      1   61.1450   31.2660   25.8606
    177      1   38.8430   68.8140    9.3939
    178      1   61.1660   43.3050   19.0785
    179      1   61.1670   68.7550    3.8178
    180      1   61.1990   54.9320   10.2102
    181      1   38.7960   50.2950   22.7790
    182      1   38.7780   68.7580   10.8048
    183      1   38.7770   55.3570    4.6074
    184      1   38.7340   39.1540   26.7900
    185      1   38.7160   58.9890    3.4311
    186      1   61.2920   55.2160   23.8035
    187      1   38.7020   41.2650    9.7791
    188      1   61.3160   39.5420    4.6152
    189      1   38.6720   31.5400   21.8076
    190      1   61.3670   51.7280   22.6935
    191      1   61.4240   66.1530   28.9539
    192      1   38.5730   53.6300   21.7029
    193      1   38.5570   37.7250   11.1804
    194      1   38.5570   66.5660   15.5412
    195      1   61.5090   57.4450   11.1123
    196      1   38.4860   46.1490    8.3286
    197      1   38.4770   34.9970   25.8003
    198      1   38.4670   36.3440   26.3436
    199      1   61.5410   53.5870    9.6258
    200      1   61.5530   36.2970    2.9868
    201      1   38.4400   60.3470    3.3519
    202      1   38.4310   42.9770   25.9707
    203      1   61.5980   68.1220    7.2303
    204      1   61.6210   46.9450   20.5896
    205      1   61.6220   36.0760   18.8010
    206      1   61.6370   65.1510   28.1247
    207      1   51.1660   65.2160   15.3450
    208      1   38.3220   67.8580    7.2774
    209      1   38.3200   63.2130    3.6210
    210      1   38.3180   63.5920   18.0810
    211      1   48.8310   71.2470    4.6359
    212      1   61.7150   57.6290   24.3933
    213      1   38.2800   48.2740    7.5585
    214      1   38.2780   32.2140   16.6026
    215      1   38.2520   64.4650    4.1070
    216      1   61.7590   45.2370    6.4674
    217      1   38.2400   56.0420   21.0645
    218      1   51.1780   65.0880   28.8720
    219      1   48.8220   59.3350   15.1620
    220      1   61.8140   32.3450   22.1013
    221      1   61.8150   66.8070    9.1596
    222      1   38.1800   38.9650   10.6140
    223      1   61.8300   68.3310    5.9277
    224      1   61.8390   46.6820    6.9333
    225      1   61.8430   54.0630   23.3100
    226      1   38.1450   64.7310   17.1804
    227      1   38.1190   66.3100    5.3862
    228      1   38.1140   33.6950   14.4135
    229      1   61.9000   50.8560    8.4966
    230      1   61.9150   37.4880   18.6189
    231      1   48.8080   43.0500   26.0808
    232      1   51.1940   31.0250   16.4445
    233      1   61.9420   60.0710   25.1934
    234      1   38.0580   35.7060   12.4992
    235      1   61.9770   32.0270   27.5562
    236      1   61.9780   49.4280    7.9341
    237      1   38.0190   45.4290   25.0590
    238      1   38.0140   41.5600   26.2554
    239      1   61.9930   34.0030   20.2413
    240      1   61.9930   37.4510    3.6168
    241      1   37.9940   43.7900    8.9349
    242      1   37.9890   52.5450   22.2468
    243      1   37.9840   57.7870    3.9009
    244      1   62.0270   34.4860    1.4151
    245      1   62.0400   59.9680   11.4213
    246      1   48.7950   64.6490   29.5773
    247      1   62.0540   67.3480    1.1859
    248      1   48.7940   34.7890   13.9128
    249      1   62.0620   45.7070   20.0463
    250      1   62.0820   31.9960   23.4846
    251      1   37.9170   68.0670    8.6853
    252      1   62.1090   64.7470   10.4979
    253      1   62.1240   55.9900   10.5726
    254      1   51.2140   60.0620   14.4183
    255      1   37.8360   50.5620    6.5706
    256      1   37.8340   67.7110   12.9498
    257      1   62.1820   62.4240   26.3388
    258      1   62.1860   31.8960   26.3109
    259      1   51.2190   58.9630   13.6218
    260      1   62.2040   42.2620    5.6595
    261      1   62.2060   49.2080   21.4656
    262      1   62.2170   56.3410   23.9202
    263      1   37.7830   54.8220   21.5211
    264      1   37.7710   31.8790   19.0713
    265      1   62.2420   62.3420   11.2506
    266      1   37.7500   33.4190   23.9310
    267      1   48.7750   58.2480   14.3307
    268      1   37.7440   68.0330   11.5140
    269      1   62.2600   33.0710   29.4522
    270      1   62.2780   40.4950   18.7128
    271      1   37.7190   46.8620    7.9068
    272      1   37.7070   66.8430    6.5070
    273      1   62.3260   66.5340    0.0027
    274      1   37.6330   47.7300   24.1563
    275      1   37.6240   33.1550   15.4785
    276      1   37.6180   58.4960   20.3979
    277      1   37.5900   36.8540   11.8155
    278      1   37.5670   45.0080    8.4861
    279      1   62.4330   67.9690    3.7254
    280      1   62.4360   35.2290   19.7766
    281      1   51.2440   28.2070   21.7113
    282      1   62.4500   67.1870    7.8240
    283      1   37.5350   52.7370    5.6457
    284      1   62.4690   58.6150   11.1192
    285      1   37.5280   34.5910   24.7845
    286      1   37.5220   44.0820   25.4814
    287      1   37.5200   38.7050   26.2350
    288      1   37.5170   32.3270   21.5901
    289      1   51.2500   30.0490   17.4489
    290      1   62.5440   35.5560    2.1681
    291      1   62.5490   58.7680   24.6888
    292      1   62.5580   65.6780    9.5100
    293      1   62.5740   42.8540   19.1847
    294      1   62.5770   33.4110   21.4566
    295      1   37.4180   37.2670   25.9536
    296      1   37.4050   32.3450   17.7069
    297      1   37.3930   60.8940   19.3986
    298      1   37.3850   65.0470    5.0922
    299      1   37.3260   41.5540    9.5766
    300      1   37.3610   34.8730   13.4175
    301      1   62.6850   47.9400   20.9175
    302      1   37.3060   49.2070    6.9993
    303      1   62.6990   39.8680    4.7283
    304      1   62.7300   61.0730   25.6983
    305      1   37.1960   50.1370   23.2623
    306      1   37.1900   55.1430    4.8123
    307      1   62.8110   51.6220   22.2696
    308      1   37.1880   66.3230   14.9139
    309      1   37.1740   57.2230   20.8674
    310      1   37.1690   60.7810    3.9126
    311      1   62.8360   63.3920   10.5828
    312      1   62.8410   61.0850   11.0907
    313      1   62.8450   33.9890    0.3219
    314      1   62.8560   32.7890   28.1886
    315      1   62.8640   64.5160   28.0680
    316      1   37.1340   62.2360    4.1139
    317      1   62.8930   67.6760    5.0148
    318      1   48.7100   39.4390   29.6451
    319      1   62.9050   67.4150    2.5893
    320      1   62.9070   41.6780   19.0524
    321      1   37.0920   46.4290   24.6498
    322      1   62.9680   52.9370    9.4167
    323      1   37.0050   32.4250   20.2098
    324      1   36.9970   33.2470   22.6593
    325      1   63.0210   41.1130    5.2401
    326      1   63.0660   44.5200    6.4524
    327      1   36.9300   51.5310    6.0861
    328      1   36.9200   62.8280   18.1722
    329      1   63.0840   38.0200   19.1985
    330      1   63.0910   63.3080   27.1542
    331      1   36.9050   42.7770    9.1302
    332      1   51.3100   35.3500    1.2342
    333      1   63.1460   51.4760    8.8905
    334      1   36.8520   66.8410   13.6053
    335      1   63.1600   32.6750   24.1212
    336      1   36.8320   57.6640    4.2606
    337      1   63.1730   47.3040    7.3926
    338      1   63.1800   43.3020    6.0345
    339      1   36.8160   64.6230   16.6935
    340      1   36.7920   67.3420    9.3648
    341      1   51.3220   71.0040   10.8834
    342      1   36.7680   59.5750   19.9335
    343      1   48.6760   38.7420   13.9476
    344      1   63.2470   32.5630   25.5264
    345      1   63.2590   50.3030   21.7599
    346      1   36.7400   41.1630   25.8489
    347      1   63.2720   39.4190   19.1151
    348      1   63.2820   48.6670    7.8720
    349      1   36.7080   39.3260   10.6059
    350      1   63.3040   53.9630   23.0151
    351      1   36.6840   67.3650   10.7826
    352      1   36.6640   48.7700   23.7975
    353      1   36.6600   52.4190   22.5072
    354      1   36.6440   53.8220    5.3052
    355      1   63.4390   37.8370    3.5250
    356      1   48.6550   43.5910   18.2340
    357      1   63.4580   55.8360   10.2861
    358      1   63.4830   45.3450   20.0481
    359      1   36.5020   64.3800    5.4621
    360      1   36.4930   39.6910   25.7682
    361      1   36.4770   66.0970    7.1715
    362      1   48.6460   41.9900   15.8061
    363      1   36.4440   61.7540   18.7140
    364      1   36.4390   35.5380   24.4371
    365      1   48.6440   30.3160   16.5546
    366      1   63.5820   66.3200    7.4823
    367      1   63.6260   35.7970   20.4678
    368      1   48.6360   61.9010   16.2096
    369      1   63.6500   65.3800    8.5986
    370      1   36.3430   65.3590   15.5253
    371      1   36.3400   36.8680   25.0629
    372      1   63.6630   56.2280   23.7843
    373      1   63.6680   65.8020    0.1011
    374      1   36.3230   37.2110   11.9865
    375      1   63.6930   34.0280   22.1742
    376      1   36.3000   40.6410   10.0386
    377      1   36.2900   33.8240   15.8004
    378      1   36.2750   56.2490    4.6950
    379      1   36.2740   60.2830    4.3608
    380      1   36.2410   33.2770   17.2497
    381      1   63.7690   43.9290   19.7526
    382      1   63.7770   39.0200    4.1340
    383      1   36.2230   54.7070   21.7626
    384      1   63.7970   58.4990   10.5975
    385      1   36.1920   43.7110   25.2867
    386      1   36.1910   51.1450   22.9584
    387      1   36.1820   62.8780    4.9875
    388      1   36.1720   46.6300    7.7874
    389      1   63.8330   52.6910   22.5543
    390      1   51.3860   63.6980   28.6323
    391      1   63.9220   36.0880    1.9491
    392      1   36.0760   45.3310    8.2251
    393      1   63.9410   64.8540   29.0124
    394      1   63.9530   58.5010   24.6879
    395      1   36.0400   58.8170    4.4457
    396      1   36.0380   35.4400   13.7457
    397      1   36.0200   63.5220   17.2686
    398      1   63.9810   37.1760   20.0721
    399      1   63.9980   33.4330   27.7068
    400      1   64.0080   33.6410   23.4558
    401      1   64.0230   66.7330    5.1672
    402      1   35.9670   66.3880    8.6214
    403      1   64.0340   63.2090    9.7068
    404      1   64.0730   66.5850    2.6943
    405      1   35.9260   34.1580   22.3722
    406      1   35.7860   33.3080   19.7823
    407      1   35.9190   64.9080    6.5106
    408      1   64.0910   60.8590   10.3866
    409      1   64.1050   47.6390   20.8431
    410      1   35.8690   48.8700    7.0119
    411      1   51.4140   28.6020   25.5324
    412      1   35.8340   56.9910   20.8992
    413      1   64.1710   57.1750   10.3044
    414      1   35.8270   42.2090   25.3695
    415      1   64.1760   34.5880   29.9334
    416      1   64.1790   33.3370   26.2899
    417      1   35.8180   38.4420   11.3433
    418      1   64.2000   55.0030   23.3727
    419      1   64.2030   60.7600   25.8879
    420      1   48.5760   56.4180    5.3748
    421      1   35.7480   66.3160   12.9054
    422      1   64.3000   35.1880   21.6501
    423      1   64.3110   41.3200   19.6317
    424      1   35.6840   53.3900   22.2048
    425      1   64.3180   53.6250    9.4860
    426      1   35.6740   46.0830   24.5655
    427      1   64.3300   66.0820    6.4203
    428      1   35.6700   66.5180   11.5188
    429      1   64.3770   37.2150    2.6760
    430      1   64.3850   39.9750   19.7025
    431      1   48.5610   44.0230   19.5507
    432      1   64.4000   64.2660    8.7105
    433      1   35.5890   35.2770   23.2965
    434      1   51.4410   36.7900    1.3698
    435      1   64.4270   62.7600   27.3363
    436      1   64.4380   41.5480    5.2488
    437      1   64.4450   45.3350    6.7323
    438      1   64.4610   46.2830   20.5170
    439      1   64.4680   54.7270    9.7293
    440      1   64.4730   46.6730    7.2069
    441      1   64.4850   65.8080    1.3482
    442      1   35.5120   51.2820    6.2394
    443      1   35.5110   36.5410   12.9825
    444      1   35.5080   43.1090    9.1011
    445      1   64.4970   50.7850    8.6049
    446      1   35.5000   34.8410   15.0474
    447      1   51.4500   32.8850    0.4464
    448      1   64.5640   49.4060    8.1471
    449      1   64.5650   57.2490   24.2568
    450      1   64.5890   42.8100    5.7615
    451      1   48.5390   70.5670    3.3891
    452      1   64.6170   59.6280   10.1958
    453      1   35.3750   39.2610   25.0509
    454      1   35.3740   59.2530   19.8075
    455      1   35.3630   34.0850   21.0162
    456      1   35.3400   55.6960   21.3375
    457      1   35.3320   47.4650    7.5363
    458      1   35.3240   37.8750   24.6273
    459      1   64.6910   61.9350    9.6705
    460      1   64.7140   49.9970   21.6813
    461      1   35.2710   44.7120   24.7797
    462      1   64.7310   66.1960    3.9828
    463      1   64.7320   34.3130   28.5819
    464      1   64.7350   35.6170    0.8079
    465      1   35.2170   48.4490   23.7969
    466      1   35.1860   53.7080    5.6169
    467      1   64.8200   59.4900   25.3818
    468      1   48.5120   60.6350    0.4131
    469      1   35.1180   64.9020   14.9154
    470      1   35.1110   44.4830    8.6271
    471      1   48.5070   67.3930    0.4863
    472      1   35.0600   61.9920    5.5806
    473      1   35.0510   60.7100    5.1780
    474      1   64.9920   61.5620   26.7102
    475      1   34.9810   49.9760    6.7365
    476      1   65.0210   34.3730   24.2520
    477      1   34.9770   61.3340   18.4350
    478      1   34.9600   65.5980    9.2607
    479      1   65.0820   48.6020   21.3126
    480      1   65.0840   43.4600   20.1597
    481      1   34.9120   40.9950   10.2090
    482      1   65.1050   37.9180   20.7324
    483      1   65.1050   34.1820   25.6809
    484      1   34.8850   57.9430   20.3037
    485      1   65.1170   63.9960   29.0586
    486      1   65.1170   39.5640    3.9681
    487      1   34.8730   56.1100    5.2392
    488      1   34.8590   65.3420   13.6044
    489      1   34.7960   58.7070    5.1492
    490      1   34.7710   65.7050   10.7403
    491      1   34.7690   47.0640   24.0714
    492      1   34.7670   63.1340   16.7919
    493      1   65.2410   52.3430   22.5456
    494      1   34.7530   64.1040    7.2369
    495      1   65.2930   42.0270   20.1708
    496      1   34.7040   50.7400   22.9797
    497      1   65.3220   39.3190   20.4462
    498      1   65.3400   35.8920   22.3584
    499      1   34.6580   52.3740    6.1110
    500      1   34.6380   41.7230   24.7848
    501      1   65.3780   63.1140   28.3005
    502      1   65.3790   64.8920    6.4899
    503      1   65.3810   64.0160    7.6638
    504      1   48.4600   28.1760   22.4292
    505      1   34.5580   36.2690   22.8669
    506      1   65.4570   40.8480    4.5711
    507      1   34.5420   42.2400    9.7176
    508      1   34.5320   60.1520   18.9930
    509      1   65.4990   56.8530    9.6720
    510      1   34.4620   38.9380   11.6691
    511      1   34.4330   40.2460   24.5472
    512      1   34.3910   37.5380   23.5719
    513      1   65.6300   54.7130   23.4672
    514      1   48.4370   68.6130    1.2678
    515      1   48.4360   36.1430   13.5984
    516      1   34.3470   62.7690    6.6801
    517      1   34.3460   35.0730   20.6535
    518      1   65.6590   64.8420    1.4556
    519      1   34.3380   63.7780   15.6069
    520      1   34.3360   35.5220   15.5454
    521      1   65.6680   53.0290    8.9481
    522      1   65.6700   51.6500    8.5929
    523      1   65.6730   37.7540    2.2800
    524      1   65.6750   50.9690   22.1820
    525      1   34.3190   53.0350   22.1322
    526      1   34.3040   54.8670    5.6796
    527      1   34.3030   64.5030    8.5371
    528      1   65.7020   55.4980    9.4263
    529      1   48.4290   68.2780   14.7903
    530      1   34.2720   59.9600    5.6184
    531      1   65.7330   44.7740    6.2961
    532      1   65.7350   48.8120    7.7418
    533      1   34.2620   49.4120   23.2833
    534      1   48.4260   44.1840   22.3455
    535      1   65.7430   45.8290   20.8179
    536      1   34.2550   37.1100   13.4274
    537      1   65.7460   35.4640   23.6784
    538      1   65.7610   47.4450    7.2795
    539      1   65.7620   43.4670    5.7426
    540      1   65.7890   59.3520    9.4386
    541      1   65.7900   37.2430   21.8364
    542      1   34.2000   62.0200   17.4162
    543      1   65.8000   61.7860    8.7207
    544      1   65.8050   65.1360    4.0566
    545      1   65.8170   35.1140   28.0569
    546      1   48.3480   56.4820   12.1239
    547      1   34.1260   57.3150    5.5320
    548      1   65.9650   56.9340   24.5055
    549      1   34.0340   47.3520    7.7910
    550      1   65.9860   36.3010    0.2658
    551      1   34.0100   35.2800   16.8720
    552      1   33.9980   44.2450   24.2976
    553      1   66.0090   35.0780   26.5725
    554      1   66.0170   63.9780    0.2547
    555      1   33.9750   35.1200   19.3179
    556      1   33.9640   40.1750   11.1018
    557      1   48.3940   63.3580   16.4322
    558      1   66.0750   38.9200    2.9631
    559      1   66.0800   44.4220   20.7561
    560      1   33.8840   55.3030   21.1470
    561      1   33.8770   36.1380   21.5796
    562      1   66.1250   62.8110    7.7106
    563      1   66.1430   53.3260   23.1006
    564      1   66.1460   64.4840    5.3106
    565      1   48.3850   56.9450    4.0734
    566      1   33.8480   64.5930   12.8661
    567      1   33.8380   64.7540   11.3889
    568      1   33.8070   51.6600   22.4559
    569      1   66.2040   58.0300    9.2670
    570      1   48.3790   38.0130    0.0621
    571      1   48.3760   41.0320   14.8011
    572      1   33.7610   45.0090    8.7630
    573      1   66.2670   59.0820   25.7724
    574      1   33.7300   42.7570   24.2199
    575      1   33.7100   38.2750   12.7572
    576      1   66.3080   61.1400   27.2229
    577      1   66.3200   64.5590    2.8755
    578      1   66.3480   40.0790   21.1266
    579      1   33.6510   49.8280    7.1301
    580      1   66.3720   60.4350    8.6799
    581      1   33.6190   36.6900   14.6886
    582      1   66.3870   48.1500   21.5982
    583      1   66.4080   41.4810   20.9310
    584      1   66.4690   37.3100    1.0110
    585      1   66.4930   55.6240   24.1275
    586      1   66.5060   62.0390   28.2249
    587      1   33.4930   57.5080   19.9788
    588      1   66.5120   36.0730   28.8666
    589      1   33.4580   38.5120   23.0448
    590      1   33.4520   62.0640    7.3239
    591      1   33.4490   39.8340   23.5965
    592      1   33.4200   46.5760   23.6493
    593      1   33.4010   53.9600   21.4992
    594      1   33.3540   63.6480    9.2865
    595      1   33.3420   46.3080    8.4165
    596      1   48.3330   30.0030   27.3462
    597      1   66.6780   36.2840   24.5004
    598      1   66.6920   46.7330   21.4296
    599      1   66.7000   55.2560    8.8563
    600      1   33.2990   52.2370    6.6393
    601      1   66.7020   41.5330    4.3644
    602      1   33.2410   48.6080    7.6599
    603      1   33.2360   63.1320   14.9268
    604      1   33.2170   59.6540   18.5301
    605      1   33.2130   42.7170   10.0437
    606      1   66.7940   38.0440   22.6122
    607      1   66.8010   57.7780   25.3272
    608      1   33.1840   59.8360    6.5499
    609      1   66.8170   53.8890    8.6214
    610      1   66.8560   36.0890   25.9656
    611      1   66.8570   42.8910    5.0235
    612      1   66.9090   51.1230    7.9818
    613      1   66.9170   49.6670    7.5873
    614      1   33.0770   63.7920   10.6587
    615      1   33.0690   61.5050   16.8285
    616      1   66.9390   45.5090    6.1470
    617      1   66.9390   46.8410    6.6561
    618      1   33.0540   36.1560   18.8592
    619      1   33.0520   45.1290   23.6613
    620      1   66.9610   50.5760   22.4799
    621      1   66.9670   59.9290   26.7912
    622      1   66.9710   62.5080    6.6474
    623      1   33.0200   36.2450   17.4573
    624      1   66.9940   63.3060    5.4213
    625      1   33.0050   63.5070   13.4973
    626      1   32.9870   56.1640   20.3838
    627      1   32.9820   62.6670    8.6262
    628      1   32.9540   54.7700    6.4119
    629      1   32.9280   60.8270    7.2147
    630      1   32.9200   37.1760   21.0189
    631      1   32.9010   57.2610    6.3705
    632      1   32.8990   48.9480   22.8813
    633      1   48.2880   71.7730    6.9624
    634      1   67.1350   39.4800   22.1883
    635      1   32.8300   44.1130    9.5631
    636      1   32.8230   50.9970    7.1613
    637      1   67.2070   43.8460   21.4269
    638      1   51.7260   42.3600   29.1636
    639      1   32.7380   40.6860   11.6010
    640      1   51.7260   31.4880   29.6595
    641      1   67.2650   39.6610    2.5839
    642      1   67.2760   37.5120   23.9562
    643      1   67.2850   63.4330    2.9565
    644      1   67.3060   49.1520   22.2648
    645      1   67.3260   42.3390   21.5907
    646      1   32.6680   38.2820   21.7788
    647      1   67.3330   57.6860    8.3997