 Lammps data file for helix_gr
 
        1872 atoms
           1 atom types
 
  -50.00000       150.0000     xlo xhi
  -50.00000       150.0000     ylo yhi
           0   60.00000     zlo zhi
 
  Atoms
 
      1      1   49.9690   28.7960   48.5754
      2      1   49.9570   28.4920   42.2220
      3      1   49.8770   43.1070   49.7862
      4      1   49.8620   43.8380   46.8954
      5      1   49.8010   42.3140   51.2262
      6      1   49.7910   43.9570   45.4758
      7      1   49.7730   28.1810   46.0326
      8      1   50.2620   37.7430   54.7692
      9      1   50.2650   28.1330   44.7192
     10      1   49.7300   43.8600   42.6402
     11      1   49.6980   34.0370   53.9028
     12      1   50.3120   29.8450   50.8200
     13      1   50.3400   36.2670   54.8526
     14      1   49.5080   39.7750   53.4564
     15      1   50.5180   40.5760   53.9742
     16      1   50.5530   31.4510   52.7676
     17      1   49.4030   35.4550   54.1092
     18      1   49.3810   28.1970   43.5120
     19      1   49.3180   38.3210   53.9316
     20      1   50.6890   28.3090   47.2122
     21      1   49.1980   31.9230   52.4430
     22      1   50.8450   42.6640   52.0482
     23      1   50.9270   29.0870   49.7034
     24      1   50.9700   33.4590   54.3732
     25      1   60.0100   31.3410   53.4222
     26      1   60.0290   35.2080   58.7424
     27      1   60.0370   38.3730   42.5016
     28      1   39.9380   31.5670   44.3748
     29      1   39.8710   32.4910   45.5508
     30      1   51.0180   41.9130   53.3964
     31      1   60.1920   51.6040   52.4826
     32      1   60.2040   60.9260   58.4394
     33      1   39.7740   45.2400   43.5318
     34      1   60.2580   32.4870   44.6364
     35      1   51.0290   43.8330   49.1484
     36      1   60.4290   47.6540   48.7536
     37      1   60.3620   32.6150   55.6650
     38      1   60.3950   34.6180   43.1946
     39      1   60.3960   46.5720   47.7270
     40      1   60.4190   52.7890   53.2884
     41      1   39.5720   46.2730   42.5940
     42      1   51.0430   43.6920   43.2918
     43      1   60.5100   31.7670   45.9798
     44      1   48.9480   30.1730   50.5884
     45      1   60.8020   36.1270   59.4900
     46      1   39.4320   39.5450   46.8930
     47      1   60.5880   34.2680   57.7458
     48      1   51.0590   43.9230   44.7120
     49      1   60.6090   62.1110   59.1480
     50      1   60.6630   30.9270   50.3850
     51      1   60.7550   35.9670   43.0812
     52      1   51.0760   44.0370   47.6760
     53      1   60.7660   31.0100   48.8448
     54      1   39.2230   34.6850   46.4904
     55      1   51.0780   30.4100   51.9174
     56      1   60.8050   44.2180   45.7434
     57      1   60.8050   49.9010   50.7396
     58      1   60.8110   55.2730   54.7926
     59      1   39.1040   40.7810   46.2564
     60      1   39.0570   37.1810   46.9218
     61      1   60.9520   33.7220   44.2722
     62      1   39.0140   31.7560   43.2264
     63      1   61.0000   56.5630   55.5090
     64      1   61.0210   42.9580   44.9382
     65      1   38.9630   33.5850   45.5364
     66      1   61.1190   38.8960   43.3248
     67      1   61.1670   40.3270   43.7160
     68      1   48.8790   41.5910   51.3504
     69      1   61.2230   51.0900   51.5688
     70      1   61.2820   59.0290   56.9250
     71      1   38.6810   43.2920   44.7318
     72      1   61.3250   31.6900   52.9464
     73      1   38.5580   38.4430   46.5210
     74      1   38.5360   44.4720   43.9014
     75      1   61.4740   60.3250   57.7218
     76      1   38.4810   35.9500   46.2570
     77      1   48.8440   28.9640   48.4446
     78      1   61.5960   31.5210   51.3822
     79      1   61.6860   48.1830   49.0902
     80      1   61.6420   32.3070   46.8828
     81      1   61.6620   53.4950   53.2254
     82      1   61.7490   32.7850   55.2222
     83      1   61.7510   45.9410   47.2374
     84      1   61.7940   31.8600   48.3186
     85      1   38.1650   46.7060   42.1728
     86      1   61.8690   36.4150   43.9524
     87      1   61.9140   54.7310   53.9910
     88      1   61.9320   44.7300   46.4154
     89      1   62.0040   49.2510   49.9116
     90      1   62.0230   34.1760   45.1476
     91      1   37.9610   33.6700   44.3976
     92      1   37.9450   32.7650   43.2636
     93      1   62.0690   34.3610   57.4536
     94      1   62.1240   37.9230   43.9986
     95      1   62.1980   62.4920   59.2794
     96      1   62.2020   32.3960   53.8452
     97      1   37.7970   40.9450   45.4356
     98      1   48.7760   33.2280   52.9884
     99      1   62.2440   42.1200   45.0456
    100      1   62.2710   36.0950   59.3544
    101      1   62.2880   40.7790   44.5494
    102      1   62.3080   57.2570   55.5342
    103      1   51.2360   38.5700   55.4478
    104      1   62.4490   63.5740    0.3072
    105      1   62.4620   33.4790   46.4148
    106      1   37.5110   42.2500   44.7726
    107      1   62.4910   58.4440   56.2968
    108      1   62.5800   35.5190   44.9412
    109      1   62.5940   51.6830   51.6528
    110      1   62.6250   33.6490   56.1156
    111      1   37.3640   38.5250   45.6084
    112      1   37.3630   36.0690   45.2184
    113      1   62.7410   32.2270   50.7588
    114      1   62.8060   52.9020   52.5030
    115      1   62.8360   32.4820   49.2348
    116      1   62.8370   46.5480   47.8674
    117      1   48.7150   42.9330   48.9186
    118      1   37.1400   44.7230   43.2996
    119      1   37.1030   34.8900   44.3136
    120      1   62.9020   47.5520   48.5628
    121      1   37.0900   32.9960   42.0636
    122      1   62.9500   60.7800   57.9738
    123      1   62.9360   35.3520   58.3518
    124      1   51.3020   39.9490   55.1268
    125      1   36.9710   45.9230   42.5088
    126      1   36.9310   39.7900   45.1602
    127      1   63.2100   38.4300   44.8926
    128      1   63.2260   44.0330   46.4328
    129      1   48.6770   40.2660   52.4070
    130      1   36.7450   37.3820   44.9706
    131      1   63.2700   61.9440   58.9734
    132      1   63.2920   55.3200   54.0900
    133      1   63.3220   42.6820   45.8682
    134      1   63.3250   39.8550   45.0528
    135      1   63.3720   32.9070   53.2128
    136      1   63.4610   49.7590   50.1924
    137      1   63.4720   34.0340   47.3202
    138      1   48.6520   43.4590   47.4996
    139      1   63.4970   56.5560   54.9174
    140      1   63.6330   36.0650   45.8532
    141      1   63.6400   32.9070   51.6900
    142      1   63.6940   33.4840   48.7044
    143      1   63.7500   50.9450   51.0312
    144      1   36.2060   42.4520   43.9536
    145      1   63.8850   58.9190   56.6040
    146      1   36.1100   34.1050   42.0312
    147      1   36.1070   35.0940   43.1466
    148      1   63.9350   34.0850   55.6602
    149      1   64.0070   37.4680   45.7584
    150      1   35.9790   43.7440   43.3110
    151      1   51.4030   32.1790   53.7834
    152      1   64.0870   35.2770   46.9644
    153      1   64.1150   45.8670   47.8356
    154      1   64.1900   60.0630   57.5958
    155      1   64.2020   53.4170   52.7604
    156      1   35.7790   39.9650   44.2326
    157      1   64.2300   33.7330   54.1344
    158      1   35.7170   37.4740   43.9380
    159      1   64.3200   35.5760   57.8712
    160      1   64.3230   44.5630   47.2218
    161      1   64.3740   40.3870   45.9450
    162      1   64.3910   47.7570   49.0728
    163      1   35.6040   46.2300   41.8764
    164      1   64.4140   41.8730   46.2636
    165      1   64.4370   54.5980   53.5818
    166      1   64.5630   34.0650   49.6692
    167      1   64.6040   33.7430   51.1308
    168      1   64.6270   37.2500   59.7942
    169      1   64.5770   62.1990   59.4360
    170      1   35.3390   41.3210   43.6890
    171      1   35.3390   36.3660   43.0182
    172      1   64.7200   48.7600   49.7838
    173      1   48.5220   44.0200   44.7510
    174      1   64.7800   35.0410   56.5338
    175      1   35.1850   38.7920   43.6482
    176      1   64.9030   56.9650   55.3014
    177      1   65.0130   38.0530   46.7094
    178      1   65.0620   35.9130   47.9220
    179      1   65.0850   51.3200   51.4680
    180      1   65.1080   58.1410   56.2260
    181      1   65.1140   36.5470   58.5936
    182      1   65.1420   46.6050   48.6474
    183      1   34.7750   43.9330   42.5268
    184      1   48.4770   44.1540   43.3356
    185      1   65.2640   39.5470   46.7358
    186      1   65.2920   34.4380   53.5818
    187      1   65.3160   35.2500   49.2420
    188      1   51.5320   35.6270   55.5228
    189      1   65.3630   52.5640   52.3632
    190      1   65.3980   34.4480   52.1010
    191      1   65.4170   42.5480   47.1774
    192      1   65.4220   43.8870   47.5710
    193      1   34.5680   45.2190   41.8824
    194      1   65.5580   60.2490   58.2450
    195      1   65.6150   37.2850   47.7612
    196      1   34.2460   41.5580   42.7386
    197      1   65.7830   54.9530   54.0600
    198      1   65.8520   35.5580   55.8636
    199      1   34.1140   38.9410   42.4860
    200      1   66.0430   56.0830   54.9522
    201      1   66.0690   35.3080   54.4374
    202      1   66.0730   49.0610   50.4186
    203      1   33.9090   42.8770   42.2190
    204      1   66.2150   35.9770   50.2782
    205      1   66.2180   50.3620   51.2412
    206      1   66.2700   40.1440   47.7582
    207      1   66.2740   35.5170   51.7020
    208      1   66.3440   45.9260   49.0002
    209      1   66.3550   37.0110   57.9924
    210      1   66.3830   41.6590   47.8812
    211      1   33.6150   40.3510   42.1200
    212      1   48.3600   31.2090   51.3612
    213      1   66.4500   44.4360   48.4932
    214      1   66.4620   58.2930   56.8572
    215      1   66.5310   37.8900   48.8082
    216      1   66.5370   59.4330   57.9336
    217      1   66.6340   36.5560   56.6004
    218      1   48.3300   28.3600   46.1238
    219      1   66.7100   52.7130   52.9242
    220      1   66.7640   38.6910   59.8998
    221      1   66.8770   37.2450   50.0052
    222      1   66.8940   53.9550   53.8182
    223      1   66.9360   39.2560   48.7788
    224      1   67.1810   38.1270   58.6380
    225      1   67.2150   48.0480   50.5080
    226      1   67.2850   46.5960   49.9452
    227      1   67.3280   42.2120   48.9096
    228      1   67.3280   50.6490   51.9456
    229      1   67.3480   56.2680   55.7244
    230      1   48.2630   36.1000   53.4054
    231      1   67.3910   43.6500   49.1280
    232      1   48.2560   37.4890   53.3112
    233      1   67.5610   57.3010   56.7048
    234      1   67.5840   51.7010   52.7262
    235      1   51.7580   28.2720   44.5620
    236      1   67.5890   37.7850   51.1272
    237      1   48.2400   29.6760   49.4712
    238      1   67.6170   59.4550   58.8186
    239      1   67.6190   37.3110   55.7844
    240      1   67.7570   60.3150   59.9694
    241      1   67.7770   39.8430   49.8762
    242      1   68.0570   41.2840   49.8846
    243      1   68.0840   39.0180   51.0276
    244      1   68.1230   53.9430   54.5490
    245      1   68.1870   38.7660   57.9054
    246      1   68.2320   49.7620   52.1220
    247      1   68.2440   48.4970   51.5070
    248      1   68.2970   44.1700   50.1792
    249      1   68.2980   45.6270   50.4894
    250      1   68.3160   55.1250   55.5636
    251      1   68.3460   38.4050   56.4444
    252      1   68.6170   40.4220   59.7624
    253      1   51.8670   34.2370   55.2498
    254      1   68.6960   57.1860   57.6498
    255      1   68.7240   51.6630   53.5776
    256      1   68.7370   58.1300   58.6542
    257      1   51.8740   43.8060   51.3912
    258      1   68.6620   38.8040   53.7504
    259      1   68.8150   41.8570   50.9934
    260      1   68.8950   39.9210   58.4106
    261      1   68.9930   43.3060   51.0696
    262      1   69.0410   52.7070   54.5088
    263      1   69.1290   50.4100   53.2554
    264      1   69.1650   46.2360   51.6606
    265      1   69.1810   47.6530   52.1148
    266      1   69.4010   55.0050   56.5704
    267      1   69.5670   56.0320   57.6774
    268      1   69.5930   57.9160   59.8416
    269      1   69.6360   40.6760   57.4782
    270      1   69.7320   43.8660   52.3086
    271      1   69.7820   41.5870   53.4984
    272      1   51.9820   44.1820   49.9314
    273      1   69.9030   45.3400   52.5888
    274      1   69.9330   49.6910   53.8788
    275      1   69.9660   52.5640   55.5174
    276      1   70.0100   41.2910   54.9552
    277      1   70.0130   48.1440   53.3472
    278      1   70.0890   42.4620   59.4630
    279      1   70.1070   43.0110   53.3628
    280      1   70.1260   53.7130   56.5698
    281      1   70.2320   42.0040   57.9732
    282      1   70.3300   56.6490   59.8488
    283      1   70.3440   55.7090   58.6884
    284      1   70.5240   42.5570   55.6404
    285      1   70.5710   50.2760   55.1520
    286      1   70.5800   45.8560   53.9394
    287      1   47.9410   28.2250   43.7112
    288      1   70.5930   43.6210   59.6400
    289      1   70.5950   43.5160   54.6840
    290      1   70.6140   51.4600   55.8462
    291      1   70.6560   47.2780   54.2430
    292      1   70.7180   42.9730   57.0456
    293      1   70.8770   53.4030   57.7602
    294      1   70.8970   44.8880   54.9810
    295      1   70.9290   54.3710   58.7730
    296      1   52.1010   42.6140   54.1728
    297      1   71.1430   44.3550   57.4704
    298      1   71.1620   44.5450   58.5744
    299      1   71.1720   47.6780   55.5726
    300      1   71.1840   49.0580   55.9404
    301      1   71.2510   45.3120   56.3616
    302      1   71.2790   51.1050   57.2388
    303      1   52.1290   28.2900   47.0988
    304      1   71.3730   53.9370    0.0756
    305      1   71.3900   51.8600   58.0956
    306      1   71.4070   46.3690    0.2688
    307      1   71.4500   46.6800   56.6502
    308      1   71.5080   45.9990   58.9350
    309      1   71.5560   49.6720   57.3450
    310      1   71.6640   47.0710   58.0398
    311      1   71.7630   51.5530   59.4594
    312      1   71.7740   48.6110   58.3578
    313      1   71.7820   48.7420   59.8206
    314      1   52.2120   37.9350   56.3076
    315      1   52.2320   44.3090   46.9704
    316      1   47.7470   28.8320   47.4180
    317      1   52.2560   40.6850   55.8516
    318      1   52.2860   44.0760   45.4254
    319      1   52.2940   28.6110   43.2666
    320      1   52.3120   43.2160   42.5454
    321      1   52.3250   28.9180   49.6584
    322      1   47.6470   41.3990   50.5290
    323      1   52.4290   36.4680   56.2998
    324      1   52.4580   30.1100   52.0104
    325      1   47.5380   42.1310   49.4250
    326      1   47.5010   33.7860   52.4406
    327      1   52.5540   42.0140   55.4748
    328      1   47.4290   39.5150   51.9174
    329      1   47.3820   28.3390   45.0096
    330      1   47.3430   43.4360   46.7694
    331      1   52.7070   28.3020   45.7620
    332      1   47.2850   43.8770   45.4398
    333      1   47.2820   35.2400   52.6518
    334      1   52.7840   31.7640   54.0270
    335      1   47.1980   38.1930   52.3470
    336      1   52.8060   44.3550   52.2870
    337      1   47.1880   44.5110   42.6132
    338      1   52.8590   43.9140   53.7210
    339      1   47.0400   31.6980   50.9652
    340      1   52.9840   28.5270   48.3024
    341      1   47.0130   28.3910   42.5538
    342      1   53.0890   29.3780   50.8680
    343      1   46.8880   29.9170   48.9534
    344      1   53.1260   40.0970   56.9496
    345      1   53.1490   38.7260   57.0858
    346      1   53.1750   33.6800   55.6266
    347      1   53.2330   44.8380   49.2534
    348      1   46.7540   40.3250   50.8266
    349      1   53.3140   30.7370   53.1048
    350      1   46.6350   29.3040   47.6328
    351      1   46.6040   32.9690   51.4992
    352      1   53.4350   44.7610   47.7648
    353      1   53.4740   42.8000   56.3172
    354      1   53.4940   43.9360   44.7348
    355      1   53.5350   43.3070   43.2744
    356      1   53.6600   32.4870   54.9936
    357      1   53.6650   35.9080   56.9238
    358      1   46.2930   42.1290   48.6222
    359      1   53.7430   44.7000   54.5982
    360      1   46.2540   30.9150   49.6896
    361      1   53.8260   45.3340   51.7986
    362      1   46.1610   42.9070   47.3850
    363      1   46.1570   35.8930   51.9402
    364      1   53.8890   29.1250   43.2192
    365      1   46.0790   37.4570   51.7302
    366      1   53.9350   44.2450   55.8174
    367      1   46.0040   44.1290   44.7966
    368      1   46.0020   28.6920   45.2280
    369      1   54.0260   40.9030   57.7824
    370      1   45.9530   44.6290   43.3854
    371      1   54.0760   34.5090   56.5236
    372      1   54.0760   42.2780   57.5262
    373      1   54.1460   45.4420   50.2248
    374      1   54.2130   28.6160   45.5772
    375      1   54.2260   38.1110   57.8868
    376      1   45.6620   29.2670   46.6722
    377      1   54.3860   28.6500   48.1608
    378      1   45.5430   40.1860   50.1312
    379      1   54.4670   45.8940   54.1716
    380      1   45.5280   28.5850   42.7314
    381      1   54.5110   29.3220   50.8014
    382      1   54.5250   36.7590   57.7332
    383      1   54.5730   46.0290   52.8816
    384      1   45.4150   33.5170   50.9466
    385      1   54.6550   44.9100   47.0520
    386      1   54.6590   44.3180   45.5676
    387      1   54.6840   45.1740   56.7798
    388      1   54.7860   30.5170   53.0862
    389      1   45.1910   41.2580   49.0308
    390      1   54.8360   43.0960   58.4046
    391      1   54.8590   29.1000   44.3304
    392      1   54.8600   42.8300   42.8874
    393      1   45.1380   35.0620   51.1566
    394      1   54.9100   40.3250   58.7112
    395      1   45.0760   28.7710   44.1072
    396      1   54.9830   44.5470   58.1586
    397      1   44.9760   31.5080   49.3344
    398      1   55.0370   28.7280   46.7724
    399      1   44.9230   37.9250   50.8440
    400      1   55.0860   46.7780   55.1580
    401      1   55.0860   38.9040   58.6800
    402      1   55.1000   32.1230   55.1112
    403      1   44.8890   43.0010   46.7910
    404      1   55.1490   28.9850   49.4508
    405      1   55.1510   46.5640   56.5548
    406      1   44.7900   43.7800   45.5316
    407      1   44.7180   45.0950   42.8478
    408      1   55.3520   29.8350   51.9258
    409      1   44.6160   39.1680   50.1708
    410      1   44.5580   32.8000   49.9590
    411      1   55.4940   34.0510   56.8158
    412      1   55.5050   45.5190   58.9422
    413      1   55.5170   46.9910   52.4610
    414      1   55.6030   42.5790   59.5404
    415      1   55.4430   46.1560   50.1084
    416      1   55.5600   47.5100   57.5688
    417      1   44.3720   29.9800   46.9104
    418      1   55.6700   47.0650   58.8474
    419      1   55.6960   31.1800   54.1260
    420      1   55.7990   45.4790   47.7606
    421      1   55.7100   47.8400   54.9216
    422      1   55.7260   41.1830   59.5914
    423      1   55.8590   36.2000   58.2318
    424      1   56.1460   29.4160   44.4684
    425      1   55.8860   47.8520   59.9496
    426      1   44.0960   35.5330   50.5098
    427      1   55.9100   48.8410   57.4080
    428      1   55.9280   44.0600   44.9694
    429      1   56.0720   46.0800   48.7722
    430      1   55.9850   52.7150   59.9868
    431      1   56.0410   44.9670    0.1998
    432      1   56.0270   49.4330   59.7474
    433      1   56.0290   46.9900   51.0282
    434      1   56.0340   32.8580   56.0370
    435      1   56.0360   47.9180   53.5140
    436      1   43.9590   36.8320   50.4078
    437      1   43.9790   31.0170   48.0660
    438      1   56.0740   49.8500   58.3470
    439      1   56.0870   43.2010   43.7496
    440      1   43.8970   41.3520   48.2562
    441      1   56.1040   48.9020   55.9194
    442      1   56.1850   55.4160   59.5476
    443      1   56.1870   38.3120   59.2740
    444      1   43.7270   42.3160   47.2536
    445      1   43.7080   29.2810   44.2986
    446      1   56.7100   57.9540   59.4306
    447      1   56.4180   34.8900   57.7152
    448      1   56.4410   51.2010   57.8466
    449      1   56.4490   52.5310   58.5570
    450      1   56.4770   29.2170   49.3356
    451      1   43.5160   44.1010   44.9508
    452      1   56.4990   31.0680   42.3702
    453      1   43.4950   44.9150   43.6788
    454      1   56.6050   29.2230   46.8240
    455      1   43.3440   29.9150   45.6582
    456      1   56.6600   36.9590   58.9800
    457      1   56.7530   50.0720   55.4790
    458      1   43.2400   39.3260   49.2384
    459      1   43.2250   33.5290   49.3206
    460      1   56.7840   29.9130   51.7842
    461      1   56.9020   30.4210   43.6074
    462      1   56.9210   51.2590   56.3718
    463      1   57.0200   45.3740   46.9818
    464      1   43.0650   34.6810   49.6728
    465      1   56.9740   55.1950   58.2870
    466      1   56.9800   39.1310    0.0702
    467      1   56.9810   39.1100    0.0618
    468      1   56.9830   39.0900    0.0534
    469      1   57.0120   53.8550   57.7728
    470      1   57.0420   49.0000   53.1456
    471      1   42.8430   31.7260   47.8596
    472      1   57.1210   29.6280   45.7218
    473      1   42.8740   40.4380   48.4242
    474      1   57.1450   44.5480   45.6750
    475      1   57.1530   31.0660   53.9760
    476      1   42.8000   36.8820   49.5972
    477      1   42.7500   29.4540   43.0800
    478      1   57.2710   29.6320   50.5452
    479      1   57.2810   29.3770   48.0972
    480      1   57.3650   50.0920   54.1122
    481      1   57.4340   42.6600   43.4934
    482      1   57.6080   46.5550   48.7524
    483      1   57.3710   47.8700   50.8032
    484      1   57.4890   32.6500   56.0778
    485      1   42.4890   42.5260   46.6056
    486      1   42.4720   32.9230   48.3996
    487      1   57.6150   41.5650   42.6138
    488      1   42.3760   43.5310   45.5622
    489      1   57.6400   57.7010   58.3248
    490      1   42.3480   38.1930   49.0842
    491      1   57.6750   30.4820   52.7946
    492      1   57.7080   52.4470   55.8132
    493      1   42.2600   45.3400   43.2930
    494      1   57.7910   56.3420   57.6756
    495      1   57.7930   53.7140   56.5038
    496      1   57.8230   34.5210   57.8670
    497      1   41.8560   31.4890   46.6866
    498      1   42.0840   35.7290   49.1112
    499      1   42.0710   46.2240   42.1830
    500      1   42.0640   30.6820   45.6630
    501      1   57.8270   48.9430   51.8304
    502      1   58.0960   46.0790   47.6106
    503      1   58.0120   31.8020   55.0026
    504      1   57.3930   60.4860   59.5758
    505      1   58.0620   36.4990   59.3010
    506      1   58.0450   62.8770    0.1248
    507      1   58.1880   30.9060   44.2506
    508      1   58.3230   51.1000   53.7492
    509      1   58.3550   33.4750   57.0090
    510      1   58.3580   30.3680   45.6054
    511      1   41.6120   40.5310   47.7036
    512      1   58.1920   47.6380   49.5192
    513      1   58.4550   44.1640   45.2388
    514      1   58.4990   52.2680   54.5574
    515      1   58.5430   29.9560   50.0820
    516      1   41.4400   30.0830   43.1604
    517      1   58.5820   32.8180   42.5904
    518      1   58.5850   43.1350   44.2770
    519      1   41.3970   41.6560   46.8876
    520      1   58.6080   29.8740   48.5586
    521      1   58.6660   35.3710   58.7052
    522      1   58.7170   60.0870   58.6170
    523      1   58.7240   54.7820   55.9866
    524      1   58.7280   58.7850   57.9558
    525      1   58.7600   56.0710   56.6442
    526      1   58.7730   37.3270    0.0360
    527      1   41.1830   33.4510   47.6328
    528      1   41.1470   43.8660   44.9832
    529      1   58.8680   40.7490   42.6720
    530      1   58.8750   49.6920   51.7050
    531      1   41.1170   30.6770   44.3838
    532      1   41.0650   38.2710   48.2400
    533      1   41.0520   44.8610   43.9860
    534      1   59.0440   30.6830   52.4796
    535      1   59.0670   32.0080   43.8144
    536      1   40.9080   35.7660   48.2358
    537      1   40.9070   32.4170   46.6068
    538      1   59.1150   50.8390   52.6116
    539      1   59.2170   34.1920   42.3348
    540      1   40.6950   39.4970   47.6736
    541      1   59.3120   45.9020   47.1150
    542      1   40.6610   46.7790   41.9382
    543      1   59.4260   30.4380   51.0054
    544      1   59.4890   30.7500   46.5126
    545      1   59.5000   31.8760   54.7638
    546      1   59.5180   53.1920   54.2256
    547      1   59.4090   48.2370   49.5894
    548      1   59.5400   44.7590   45.9534
    549      1   59.5930   30.4390   47.9424
    550      1   40.4060   34.6260   47.5308
    551      1   59.6090   62.7720   59.8104
    552      1   59.6580   54.4390   54.9648
    553      1   40.3010   37.0560   47.8608
    554      1   59.7400   33.3650   56.8350
    555      1   59.7780   49.2870   50.6526
    556      1   40.1520   41.8580   46.2204
    557      1   59.8840   57.0180   56.3388
    558      1   59.8870   42.4710   44.1864
    559      1   59.9290   36.9530   42.3036
    560      1   59.9840   58.2980   56.9928
    561      1   40.0150   43.0640   45.3594
    562      1   59.9890   41.1810   43.4610
    563      1   66.8540   36.2080   53.9070
    564      1   67.5810   37.0640   54.5508
    565      1   66.8040   36.2430   52.5474
    566      1   67.4560   37.2440   52.3434
    567      1   68.7450   39.6190   52.4460
    568      1   69.2170   40.9900   52.2510
    569      1   68.9110   39.1190   55.3254
    570      1   69.6820   40.2390   55.9002
    571      1   68.0680   37.8360   53.5002
    572      1   49.9390   34.4380   35.7426
    573      1   49.8940   64.2140   24.6264
    574      1   50.1910   62.6140   24.4362
    575      1   49.7550   60.3840   24.2880
    576      1   50.3180   38.6910   35.8974
    577      1   50.3310   37.3040   35.6226
    578      1   50.3600   31.4820   37.7514
    579      1   49.6370   33.0420   36.1752
    580      1   49.6250   43.6640   41.2308
    581      1   50.3900   42.5110   39.2424
    582      1   49.5930   41.2850   36.6864
    583      1   49.4450   29.3780   39.8520
    584      1   50.7040   43.0140   40.6056
    585      1   48.5830   62.0440   25.7460
    586      1   49.2150   36.5810   34.8174
    587      1   50.7970   40.6960   37.4082
    588      1   50.7970   32.7090   37.0434
    589      1   49.1990   42.9970   38.5614
    590      1   49.3290   61.6810   24.7710
    591      1   50.8180   65.4040   23.7582
    592      1   49.1160   39.6400   35.1414
    593      1   50.8950   29.8080   39.8424
    594      1   49.0290   28.7530   41.0844
    595      1   40.1030   36.4720   30.3120
    596      1   39.8880   61.8720   30.9522
    597      1   39.8850   60.6090   31.7454
    598      1   39.8790   53.1490   36.2256
    599      1   39.8780   38.3190   28.9176
    600      1   39.8720   58.0400   33.2112
    601      1   39.8630   41.5700   26.9874
    602      1   39.8060   56.7740   33.9648
    603      1   39.8050   54.3570   35.4348
    604      1   48.9780   35.1810   34.9092
    605      1   39.7270   68.4890   23.6334
    606      1   39.5050   31.5050   36.6474
    607      1   48.9370   40.8040   35.5398
    608      1   39.3500   32.6980   34.3536
    609      1   48.9340   67.1110   24.0960
    610      1   39.3030   48.2990   40.7106
    611      1   39.2760   31.1310   41.9676
    612      1   39.2030   49.3650   39.7746
    613      1   39.2010   31.0430   39.3000
    614      1   39.1950   66.8640   26.2902
    615      1   39.0370   65.9220   27.4830
    616      1   38.9720   45.8340   23.9370
    617      1   48.8970   42.4860   37.2318
    618      1   51.1120   35.1610   36.3006
    619      1   38.8550   51.6750   37.9404
    620      1   38.5560   38.3990   28.6524
    621      1   38.8200   43.3500   25.4922
    622      1   48.8810   30.7240   37.6944
    623      1   38.8090   63.7860   29.6322
    624      1   38.7520   32.2660   35.5308
    625      1   38.7240   42.1060   26.2338
    626      1   38.7230   52.8700   37.0830
    627      1   38.7180   58.9450   33.1362
    628      1   38.4090   39.6160   27.7914
    629      1   38.6950   60.1880   32.3364
    630      1   38.6920   62.6040   30.6264
    631      1   38.6800   31.4770   38.0364
    632      1   38.8660   36.0480   30.5952
    633      1   39.0270   34.9060   31.5660
    634      1   38.6270   55.2600   35.4798
    635      1   38.6250   56.4540   34.7106
    636      1   38.5050   31.4460   40.7400
    637      1   38.3840   67.8230   23.9652
    638      1   48.8370   59.2540   24.5808
    639      1   38.0740   34.5640   32.3454
    640      1   38.1960   33.5550   33.6162
    641      1   38.0890   67.0760   25.3368
    642      1   38.0310   47.7830   41.3112
    643      1   37.8320   49.9810   39.5754
    644      1   37.7590   44.9650   24.0792
    645      1   37.7450   65.3190   27.8268
    646      1   51.2300   39.4000   36.9468
    647      1   37.4550   32.7210   35.5398