 Lammps data file for helix_gr
 
        1618 atoms
           1 atom types
 
  -50.00000       150.0000     xlo xhi
  -50.00000       150.0000     ylo yhi
           0   20.00000     zlo zhi
 
  Atoms
 
      1      1   49.9800   28.1080    5.0714
      2      1   50.0250   57.4940   19.8220
      3      1   49.9400   58.4150    0.9596
      4      1   49.9400   70.3340   19.7844
      5      1   50.0610   42.9310    0.8196
      6      1   49.9200   42.2740   10.1256
      7      1   50.1260   56.2610   17.2296
      8      1   50.1310   29.0000    8.7666
      9      1   50.1340   37.4370   17.0134
     10      1   49.8600   68.5560    8.4372
     11      1   50.1410   43.4910    8.0598
     12      1   49.8510   29.4670    0.4480
     13      1   50.1500   38.8840   17.4114
     14      1   49.8390   31.0600   18.6730
     15      1   49.8310   60.8050    2.5628
     16      1   50.1740   67.3430    2.2788
     17      1   49.8200   28.4650    2.5748
     18      1   50.1820   66.3610    7.2384
     19      1   50.1980   62.6310    6.9204
     20      1   50.2040   71.4360   17.7000
     21      1   49.7760   62.1570    3.0130
     22      1   50.2300   32.2090   17.9650
     23      1   49.7240   68.5950    1.5994
     24      1   49.7110   59.9010    8.0344
     25      1   49.7070   65.0400    7.0270
     26      1   50.2990   44.0160    5.6192
     27      1   50.3060   56.0000   15.8590
     28      1   49.6900   28.5510    7.6134
     29      1   49.6780   30.5290   10.7262
     30      1   49.6750   70.2300   10.1302
     31      1   50.3500   43.7870    3.1240
     32      1   49.6330   40.2860   11.8248
     33      1   49.6060   56.1580   13.4162
     34      1   49.5940   58.7820    8.8642
     35      1   49.5790   44.0300    4.3316
     36      1   50.4330   71.8840   15.3314
     37      1   49.5420   41.5180   18.8306
     38      1   50.4620   57.1160   10.4818
     39      1   49.5250   65.0150    3.1372
     40      1   49.5220   43.5760    1.9384
     41      1   49.5120   34.4080   16.9816
     42      1   49.4710   43.8060    6.8064
     43      1   49.4700   37.8440   12.8066
     44      1   50.5640   28.9350    1.5320
     45      1   50.5700   28.2280    6.4374
     46      1   49.4210   32.7590   12.2480
     47      1   49.4190   35.2340   12.9416
     48      1   49.4110   71.4800   12.5574
     49      1   50.6250   64.0090    6.7264
     50      1   50.6570   69.3410    0.8102
     51      1   50.6570   71.5880   12.7532
     52      1   49.2950   67.3630    7.8312
     53      1   49.2940   42.9130    9.0028
     54      1   50.7320   30.3280   19.5428
     55      1   50.7320   28.2070    3.8662
     56      1   50.7730   57.8520    9.2908
     57      1   49.2080   66.4270    2.8398
     58      1   50.7930   70.8370   18.8440
     59      1   49.2060   29.6880    9.6976
     60      1   49.1760   55.9320   14.9516
     61      1   50.8250   64.5520    2.9152
     62      1   50.8380   32.7140   12.4832
     63      1   49.1600   33.0040   17.3716
     64      1   49.1140   42.5590   19.7700
     65      1   50.8870   34.9460   17.1568
     66      1   50.8970   37.9720   13.1562
     67      1   50.9000   40.9750   18.8334
     68      1   49.0680   41.3090   10.8806
     69      1   49.0520   69.3020    9.1772
     70      1   50.9650   35.3060   13.2798
     71      1   49.0300   57.1050   11.0862
     72      1   50.9720   63.1250    2.8612
     73      1   50.9900   56.0650   12.8424
     74      1   50.9930   40.4470   12.1966
     75      1   60.0080   56.7730    3.9688
     76      1   39.9850   55.6410   10.6164
     77      1   60.0190   51.7780    3.3420
     78      1   51.0030   60.1090    7.4972
     79      1   48.9970   71.8630   15.5706
     80      1   60.0340   33.2690   12.4504
     81      1   60.0340   41.0700   19.5668
     82      1   60.0690   34.7890    0.0456
     83      1   39.9010   31.0670    6.0748
     84      1   60.1140   48.1350    2.1552
     85      1   39.8760   61.4540    5.2932
     86      1   39.8710   44.9960   13.7602
     87      1   39.8410   61.1530    9.3184
     88      1   60.1610   54.2540    3.6648
     89      1   60.1650   44.4650   16.2034
     90      1   39.8230   69.3200   17.4578
     91      1   39.7860   46.8720    8.4068
     92      1   60.2240   60.0330    0.5818
     93      1   60.2330   67.2990    8.1960
     94      1   60.2390   65.7020   19.6084
     95      1   39.7610   50.4180    7.1242
     96      1   39.7450   36.0560   15.6574
     97      1   60.2640   39.1390   15.4622
     98      1   60.2760   54.3460   18.9218
     99      1   39.6900   64.1350    4.2550
    100      1   39.6880   65.0510   10.1178
    101      1   48.9680   70.7900   11.1380
    102      1   39.6700   65.4040    3.4646
    103      1   39.6620   68.3810    0.1830
    104      1   39.6620   30.8010    4.6374
    105      1   39.6550   67.6000    1.3930
    106      1   60.3580   46.9790   16.6104
    107      1   60.3800   31.8250   10.5460
    108      1   60.3850   30.7390    7.1578
    109      1   60.3990   58.2090    4.0122
    110      1   39.5750   68.6240   13.6774
    111      1   60.4280   39.7380   19.4322
    112      1   39.5690   31.4330    0.3064
    113      1   60.4670   32.0190    2.5898
    114      1   39.5300   47.7100   13.2102
    115      1   60.5190   50.5430    2.7782
    116      1   39.4740   31.0020    1.7074
    117      1   60.5400   69.1930   13.3500
    118      1   60.5450   56.5670   19.7782
    119      1   39.4410   67.1010   11.6472
    120      1   60.5630   43.4090    0.2222
    121      1   60.5800   67.9270    9.1660
    122      1   39.4170   44.5620    9.3890
    123      1   60.6000   31.0730    4.8308
    124      1   39.3690   49.1110   12.8114
    125      1   39.3400   34.8930   16.4036
    126      1   39.3330   41.1010   14.0866
    127      1   60.6770   65.4290    6.6454
    128      1   39.3220   32.6390    7.9724
    129      1   60.6970   64.3090    0.0018
    130      1   39.3030   53.4000    6.7020
    131      1   60.7250   35.6980   14.0760
    132      1   60.7380   68.8620   11.7712
    133      1   39.2570   48.2170    8.0718
    134      1   39.2450   63.6100    9.8134
    135      1   60.7910   31.1510    8.3758
    136      1   60.7950   53.0310    3.2048
    137      1   60.7970   58.8640    0.3170
    138      1   60.8180   45.6700   16.5794
    139      1   39.1730   38.3230   14.7636
    140      1   39.1700   68.8430   15.0430
    141      1   39.1500   54.9470    6.5222
    142      1   39.1420   42.4980   13.8124
    143      1   60.8590   55.5450    3.5556
    144      1   60.8750   33.1210    1.6902
    145      1   60.8800   68.5680   15.7532
    146      1   60.8800   67.2710   17.8996
    147      1   60.8910   61.3220    0.4700
    148      1   60.8910   42.0110   16.0952
    149      1   39.0760   58.5400    9.7582
    150      1   60.9350   49.3760   17.3964
    151      1   39.0540   51.8520   11.8252
    152      1   39.0510   42.1640   10.0972
    153      1   51.0960   70.4110   10.1720
    154      1   60.9700   36.9580   19.7694
    155      1   38.9980   31.9530    6.7110
    156      1   51.1020   30.5340   10.9354
    157      1   61.0260   42.0620   19.8896
    158      1   61.0280   36.9650   14.6822
    159      1   61.0380   63.2830    5.4404
    160      1   38.9330   65.8980   11.0280
    161      1   38.9220   53.2080   11.3248
    162      1   61.0850   45.7200    0.9544
    163      1   38.9100   57.8630    6.1650
    164      1   38.8980   45.9050    8.9958
    165      1   61.1160   35.6260    0.2384
    166      1   61.1540   66.3550    7.6362
    167      1   38.8330   67.6420   12.8474
    168      1   51.1170   60.3860    2.0194
    169      1   38.8150   36.9890   15.3430
    170      1   61.1920   31.2000    6.0830
    171      1   61.2060   43.3410   16.3724
    172      1   61.2110   31.8580    3.7644
    173      1   38.7860   59.2560    5.8992
    174      1   38.7820   39.6240   10.3598
    175      1   38.7790   34.7030    9.2718
    176      1   61.2490   60.9900    4.5580
    177      1   61.2520   66.1880   18.6310
    178      1   38.7130   32.9850   18.4610
    179      1   38.6570   37.0610   10.0708
    180      1   61.3590   33.7560   12.3582
    181      1   38.6270   68.6150   17.8828
    182      1   61.3760   48.0280   17.2328
    183      1   61.3790   68.6170   14.3646
    184      1   61.3800   51.7190   18.2472
    185      1   38.6150   56.2610   10.3226
    186      1   38.5980   45.3780   13.2510
    187      1   38.5830   60.8280    9.6798
    188      1   38.5560   68.2210   19.2592
    189      1   38.5480   61.9920    5.0736
    190      1   61.4920   48.0310    1.6444
    191      1   38.4950   32.2670   19.7344
    192      1   48.8490   62.2750    7.3142
    193      1   38.4940   43.5020    9.7440
    194      1   38.4920   31.4090    3.9540
    195      1   38.4680   66.7690    1.7030
    196      1   38.4660   63.3030    4.4630
    197      1   38.4640   33.7860    8.3818
    198      1   48.8460   56.7860   19.3868
    199      1   38.4560   51.0380    7.5132
    200      1   51.1550   59.1830    1.2388
    201      1   38.4300   65.7290    2.7722
    202      1   38.4300   46.7460   12.9584
    203      1   61.5730   44.4420    0.5174
    204      1   61.5850   64.3780    6.1858
    205      1   61.6050   67.6020   16.6864
    206      1   61.6330   58.4870    3.8698
    207      1   38.3650   31.4880    2.5090
    208      1   51.1650   71.6630   16.6114
    209      1   61.6490   39.6340   15.6074
    210      1   61.6970   34.9440   13.2890
    211      1   48.8300   39.6520   17.2992
    212      1   38.2850   57.4850   10.0532
    213      1   61.7360   54.0680   19.0630
    214      1   38.2580   59.6180    9.7782
    215      1   61.7740   32.3680   10.1650
    216      1   61.7950   39.3290   19.8036
    217      1   61.8030   67.6610    9.9034
    218      1   38.1880   52.5450    7.2470
    219      1   38.1670   40.9740   10.1192
    220      1   51.1850   71.8280   14.0788
    221      1   61.8620   62.1870    5.0664
    222      1   61.8680   50.4900    2.2504
    223      1   61.8820   50.3520   17.9676
    224      1   61.8840   68.0990   11.2964
    225      1   38.0820   63.2330   10.2648
    226      1   38.0710   49.5420   12.2230
    227      1   38.0650   40.3720   14.1750
    228      1   48.8060   56.2040   18.0002
    229      1   38.0430   38.4190   10.0700
    230      1   38.0340   39.0960   14.5864
    231      1   38.0330   35.9370    9.4236
    232      1   61.9780   41.0290   15.9970
    233      1   61.9910   59.9020    4.2528
    234      1   62.0030   31.9610    8.7956
    235      1   37.9780   34.8070   16.9628
    236      1   48.7970   71.6210   17.0780
    237      1   62.0300   56.4490   19.6982
    238      1   62.0320   46.7360    1.1602
    239      1   48.7960   39.0390   12.2496
    240      1   62.0410   37.9460    0.0390
    241      1   62.0470   63.8630   19.4386
    242      1   62.0720   33.9740    1.9058
    243      1   37.9160   68.1230   15.5222
    244      1   51.2100   61.5190    6.8720
    245      1   37.9000   55.5760    6.7468
    246      1   48.7890   31.6230   11.4644
    247      1   37.8830   32.4010    5.9908
    248      1   37.8800   50.9310   11.8124
    249      1   51.2160   36.4690   17.1816
    250      1   62.1730   53.0030    2.7468
    251      1   37.8160   48.6610    8.3152
    252      1   62.2180   58.7850    0.0246
    253      1   62.2190   61.3760   19.9818
    254      1   62.2380   35.2490    1.1214
    255      1   37.7620   57.0310    6.4650
    256      1   62.2460   33.2170   11.0466
    257      1   37.7530   43.0700   13.5108
    258      1   37.7180   61.7880   10.0820
    259      1   62.2860   52.7470   18.7306
    260      1   37.7010   65.3270   11.5276
    261      1   37.6820   33.9160   18.0164
    262      1   37.6380   53.6870   10.9910
    263      1   62.3660   45.2430   16.9190
    264      1   48.7630   36.8080   16.6092
    265      1   37.6260   68.0670   16.9116
    266      1   62.3840   55.4560    3.2040
    267      1   37.6150   32.1230    4.6712
    268      1   62.3900   65.0970   18.5418
    269      1   37.6090   67.0110   13.3876
    270      1   62.3940   37.4560   14.6532
    271      1   62.4050   49.1710    1.7942
    272      1   62.4270   31.9870    6.2898
    273      1   62.4500   41.7050    0.0834
    274      1   62.4710   32.7040    3.9872
    275      1   37.5220   59.8290    5.7466
    276      1   37.5070   44.4500   13.1978
    277      1   51.2500   42.4610   10.5574
    278      1   62.5150   66.1660    8.2644
    279      1   37.4790   67.4440   19.5948
    280      1   37.4500   55.1550   10.6408
    281      1   37.4340   46.2200    9.0304
    282      1   62.5680   43.8390   16.6776
    283      1   37.4280   36.8860   15.7044
    284      1   51.2580   39.6360   18.0604
    285      1   37.4180   61.1560    5.2448
    286      1   62.5890   67.8570   13.8798
    287      1   37.3980   66.7730    0.8284
    288      1   37.3960   50.1230    7.9988
    289      1   62.6180   55.1680   19.3690
    290      1   37.2920   32.6310    0.5562
    291      1   37.2890   64.0240   11.0490
    292      1   62.7340   38.7670   15.1910
    293      1   37.2650   34.0660    7.5624
    294      1   37.2630   63.7180    3.8432
    295      1   37.2560   32.2830    1.9300
    296      1   62.7460   51.6970    2.3562
    297      1   62.7490   47.6960   17.5148
    298      1   37.2470   64.8740    2.9428
    299      1   62.7740   66.9420   16.2056
    300      1   62.7880   62.5840   19.4690
    301      1   62.8160   57.5500   19.7642
    302      1   62.8170   66.8440    9.5618
    303      1   62.8250   40.3050    0.1318
    304      1   62.8310   32.3360    7.7840
    305      1   37.1060   47.2020   12.5830
    306      1   62.8960   67.6710   12.3906
    307      1   37.1030   43.7030    9.5562
    308      1   37.0960   67.2730   14.6968
    309      1   62.9100   57.7440    3.7082
    310      1   62.9260   33.7180    3.0280
    311      1   51.2930   57.2560   19.1140
    312      1   62.9730   60.0090   19.8012
    313      1   48.7030   36.4980   12.8160
    314      1   62.9870   35.4520   13.0842
    315      1   37.0070   33.3680    6.4328
    316      1   62.9970   44.1290    0.5248
    317      1   63.0020   64.2740    6.6898
    318      1   36.9950   35.8670   16.5782
    319      1   36.9840   65.8990   12.6870
    320      1   63.0650   54.1370    2.8550
    321      1   36.8340   59.2520   10.2868
    322      1   36.9190   38.1840   15.1842
    323      1   36.9090   48.5970   12.2464
    324      1   36.9070   53.2410    7.3590
    325      1   63.0960   32.7060    5.2602
    326      1   51.3110   68.7820    8.4054
    327      1   36.8890   36.1910    8.7828
    328      1   36.8820   47.6310    8.6846
    329      1   36.8490   57.8950   10.2938
    330      1   36.8000   41.1190    9.7338
    331      1   36.7720   54.7260    7.0384
    332      1   63.2580   67.1490   14.7876
    333      1   36.7410   38.5590    9.5104
    334      1   63.2640   62.1660    5.4030
    335      1   36.7350   40.9240   14.1132
    336      1   63.2770   37.5600    0.7696
    337      1   63.2790   46.2200   17.2322
    338      1   63.2790   50.0790   18.1330
    339      1   63.3270   36.1960    1.3828
    340      1   63.3410   56.5320    3.4102
    341      1   63.3810   36.6970   13.8422
    342      1   63.3820   41.4980   16.0706
    343      1   36.6130   42.2240   13.7236
    344      1   63.3880   59.9000    4.4046
    345      1   36.5890   51.4000   11.5388
    346      1   63.4120   42.7400    0.4236
    347      1   63.4200   33.8550   10.8674
    348      1   36.5630   45.0790    9.2358
    349      1   63.4420   46.5030    1.0512
    350      1   48.6560   33.9540   12.5390
    351      1   48.6550   28.1440    4.9958
    352      1   63.4560   65.1370    7.7778
    353      1   63.4630   64.9240   17.7428
    354      1   36.5320   67.2610   17.4374
    355      1   36.4790   52.8010   11.2176
    356      1   36.4570   67.0320   18.7440
    357      1   36.4510   32.9250    4.1954
    358      1   36.4350   35.2380    7.8116
    359      1   36.4300   34.1190   18.8120
    360      1   36.4300   57.5940    6.3136
    361      1   63.6200   65.8310   16.7078
    362      1   63.6580   42.9780   16.4738
    363      1   36.3140   58.9970    5.8608
    364      1   63.7050   48.7720   17.8438
    365      1   36.2930   42.5090    9.5240
    366      1   48.6290   58.6410    1.7440
    367      1   63.7240   52.4790   18.7052
    368      1   36.2570   33.5530    0.0786
    369      1   36.2190   33.0060    2.8990
    370      1   36.2100   37.4550    8.8706
    371      1   63.7950   48.9740    1.6210
    372      1   63.8230   34.9030   11.9742
    373      1   36.1750   63.3510   11.5086
    374      1   36.1560   61.6170    4.6846
    375      1   36.1500   44.9790   13.0322
    376      1   36.1440   65.8990    0.8030
    377      1   63.8580   63.1580    6.2810
    378      1   36.1130   39.9090    9.4150
    379      1   63.9030   33.1780    8.1256
    380      1   36.0900   55.6810   10.7254
    381      1   36.0830   62.8680    3.8934
    382      1   63.9190   45.1730    0.8530
    383      1   36.0580   50.8500    7.9478
    384      1   36.0410   33.6970    5.3312
    385      1   36.0300   65.0400    1.8480
    386      1   48.6020   56.4610   12.4676
    387      1   63.9810   66.7830   11.8468
    388      1   63.9840   66.3940   10.4110
    389      1   63.9930   58.6920    4.0798
    390      1   64.0230   54.9860   19.1480
    391      1   64.0480   60.9660    5.0462
    392      1   64.0710   34.6760    3.2746
    393      1   35.9240   66.4680   15.2632
    394      1   35.9180   46.3630   12.7098
    395      1   64.0950   39.2930   15.0618
    396      1   64.0980   62.4580   18.6986
    397      1   64.1310   39.9100    0.7238
    398      1   35.8370   52.4610    7.5740
    399      1   35.8190   38.7160   15.2768
    400      1   35.8190   57.1970   10.6478
    401      1   35.8160   65.1550   13.2258
    402      1   51.4180   56.3790   11.2894
    403      1   64.1920   51.5000    2.2178
    404      1   48.5790   40.9480   17.9456
    405      1   64.2160   51.1780   18.3872
    406      1   64.2230   33.7620    9.5276
    407      1   64.2240   33.6010    5.5276
    408      1   64.2370   57.4580   19.3460
    409      1   35.7320   35.9940   17.2412
    410      1   64.2910   47.6010    1.3624
    411      1   64.3070   59.9710   19.1924
    412      1   64.3070   35.8790    2.4138
    413      1   48.5690   60.9540    7.8028
    414      1   51.4340   56.6060   17.9084
    415      1   64.3370   38.5480    1.1260
    416      1   35.6510   66.5130   16.6144
    417      1   35.6040   40.1790   14.6174
    418      1   64.4110   66.2590   14.3482
    419      1   64.4160   40.6290   15.5518
    420      1   48.5570   59.8270    2.5668
    421      1   64.4290   63.5640   17.8690
    422      1   35.5650   66.0850   19.4762
    423      1   35.5540   49.1770   12.0728
    424      1   35.5030   55.3160    6.8482
    425      1   35.4630   35.1380   18.4216
    426      1   64.5510   53.9110    2.8044
    427      1   35.4240   50.5920   11.7756
    428      1   35.4200   47.7330    8.5564
    429      1   64.5810   53.6180   18.8166
    430      1   35.4190   63.9110   12.5262
    431      1   64.6270   45.9940   17.1908
    432      1   64.6270   33.7240    6.8986
    433      1   35.3650   35.4920    6.8950
    434      1   64.6940   64.8150    8.5344
    435      1   64.6970   65.4310   15.5586
    436      1   64.6970   37.2880   13.5558
    437      1   35.2990   56.7290    6.4052
    438      1   64.7040   50.0960    1.9386
    439      1   51.4720   42.6440    0.7708
    440      1   35.2690   65.4630   14.4930
    441      1   64.7450   34.5570    4.5010
    442      1   64.7660   42.3820    0.8566
    443      1   35.2280   34.6500    5.5444
    444      1   35.2200   53.3450   11.2646
    445      1   35.2180   42.7930   13.7618
    446      1   48.5210   62.6450    3.4166
    447      1   35.1860   34.0990    0.9714
    448      1   35.1830   33.9010    2.4180
    449      1   64.8280   66.0790   12.8968
    450      1   35.1540   45.1790    8.9248
    451      1   64.8560   56.1760   19.0588
    452      1   64.8630   61.2130   18.6028
    453      1   64.9190   65.3960    9.8704
    454      1   64.9400   43.4520   16.4176
    455      1   64.9420   56.2200    3.4814
    456      1   35.0510   50.2240    8.0190
    457      1   35.0440   59.4210    5.3534
    458      1   64.9730   58.6550   18.9976
    459      1   35.0190   54.7570   11.1224
    460      1   35.0180   37.6510    8.0478
    461      1   35.0010   44.1680   13.3834
    462      1   35.0000   63.1380    3.0296
    463      1   34.9900   60.7140    4.6788
    464      1   34.9890   42.6470    9.0468
    465      1   65.0260   35.6360   11.6988
    466      1   34.9630   64.1540    1.8844
    467      1   34.9550   40.0770    8.8008
    468      1   65.0720   38.5730   14.2376
    469      1   34.9120   38.1360   16.0234
    470      1   65.1040   52.5800    2.5578
    471      1   65.1060   48.5780   17.7192
    472      1   65.1100   40.9520    1.1084
    473      1   34.8690   37.0360   16.9358
    474      1   65.1710   62.8980    6.9070
    475      1   65.2350   34.6250    9.5306
    476      1   34.7630   48.8380    8.2220
    477      1   65.2440   44.8530    1.1582
    478      1   48.4700   35.3030   16.6020
    479      1   65.3080   58.5290    4.3938
    480      1   65.3210   44.7870   16.7336
    481      1   65.3350   36.9270    2.7074
    482      1   34.6540   65.6240   17.2216
    483      1   34.6440   65.4250   18.7768
    484      1   51.5370   66.8970    2.2008
    485      1   34.6270   36.6420    7.0436
    486      1   51.5380   29.0210    8.9058
    487      1   65.3840   60.7660    5.5196
    488      1   65.4150   38.2320    2.0330
    489      1   34.5630   46.4220    8.5910
    490      1   34.5580   46.9690   12.7192
    491      1   65.4490   63.4180   16.9034
    492      1   34.5500   53.0610    7.2718
    493      1   65.4710   54.9180    3.2244
    494      1   34.5070   57.6650   11.2000
    495      1   65.4980   47.2760   17.3488
    496      1   65.5060   36.7760   12.5224
    497      1   48.4490   30.6880   18.8340
    498      1   65.5530   63.6920    8.0724
    499      1   65.5590   64.3780   15.6280
    500      1   65.5890   50.9840   18.1274
    501      1   34.3970   35.0730    4.6336
    502      1   34.3920   48.3870   12.4190
    503      1   34.3910   43.9410    8.7680
    504      1   34.3900   38.9230    8.0736
    505      1   34.3750   40.7790   14.8272
    506      1   65.6350   35.4510   10.5950
    507      1   34.3590   63.0400   13.0258
    508      1   34.3510   54.4300    6.8666
    509      1   65.6500   47.3250    1.5966
    510      1   65.6530   34.7040    7.1782
    511      1   34.3380   41.4240    8.6424
    512      1   34.3380   59.0820   11.4388
    513      1   34.3370   34.7470    3.2722
    514      1   65.6760   43.4510    1.2630
    515      1   48.4320   70.4580   19.7858
    516      1   34.3070   35.6210   19.2574
    517      1   65.7290   41.1920   15.3094
    518      1   34.2190   64.5640   15.0302
    519      1   65.7880   35.5590    4.8418
    520      1   34.2050   61.7350   12.3748
    521      1   34.2030   35.1490    0.5406
    522      1   65.7980   65.1270   12.3534
    523      1   34.1760   51.1570   11.8938
    524      1   48.4180   64.0750    3.4868
    525      1   65.8250   57.2690    4.0936
    526      1   51.5840   39.3270   12.9710
    527      1   65.8870   64.8320   10.7628
    528      1   34.1110   42.0930   14.3614
    529      1   65.9140   61.7060    6.5022
    530      1   34.0820   52.5100   11.7040
    531      1   65.9410   35.0210    8.4080
    532      1   65.9780   42.5350   15.7718
    533      1   65.9810   53.4890   18.4006
    534      1   48.4010   29.7270   19.9538
    535      1   34.0000   57.1930    5.8690
    536      1   66.0120   61.0600   17.7492
    537      1   66.0390   59.5380    5.1920
    538      1   66.0540   49.6910   17.7486
    539      1   33.9280   63.9490    0.8470
    540      1   66.0960   49.7860    2.1574
    541      1   33.8770   64.6800   16.4076
    542      1   66.1260   45.9070    1.5906
    543      1   33.8740   62.2090    2.8862
    544      1   33.8600   58.4810    5.2700
    545      1   66.1410   36.7270    3.9088
    546      1   51.6150   43.8690    8.3478
    547      1   51.6190   33.9810   13.1124
    548      1   33.8060   64.4310   19.4154
    549      1   33.7910   61.0360    3.7444
    550      1   66.2220   56.0440   18.4620
    551      1   33.7640   39.0030   16.2186
    552      1   33.7420   55.3390   11.5652
    553      1   66.2600   58.5640   18.2536
    554      1   66.2670   62.1590   16.8794
    555      1   33.7250   37.3120   17.7268
    556      1   33.7160   50.9660    7.5440
    557      1   51.6280   66.6590    7.1072
    558      1   66.2900   40.6280    1.9376
    559      1   66.2930   35.5830    6.1478
    560      1   33.7060   63.3860   14.2626
    561      1   51.6300   31.5830   11.9086
    562      1   33.6610   44.8130   13.5688
    563      1   51.6350   71.0790   11.3756
    564      1   66.3540   64.0560   14.5468
    565      1   66.3660   39.2140   13.8136
    566      1   66.3900   39.2700    2.4600
    567      1   33.5770   37.0300    5.9688
    568      1   66.4530   64.3880   13.1372
    569      1   51.6470   32.6040   18.0400
    570      1   33.5150   56.8090   11.7072
    571      1   66.4980   52.1550   18.0294
    572      1   66.5040   52.2190    2.8028
    573      1   33.4830   36.3030    4.9096
    574      1   66.5460   48.3880    2.0740
    575      1   33.4510   46.2290   13.2270
    576      1   33.4420   40.1830   15.6820
    577      1   33.4360   52.1920    7.1706
    578      1   33.4320   36.7530   18.8680
    579      1   33.4060   35.7210    2.7310
    580      1   66.6100   63.2060    8.8666
    581      1   33.3850   39.0820    7.2402
    582      1   66.6620   36.3120   10.1348
    583      1   66.6660   37.5680   12.0598
    584      1   48.3300   28.6060    7.3922
    585      1   66.7030   40.4970   14.3954
    586      1   66.7180   63.7650   10.2208
    587      1   66.7190   45.5300   16.5042
    588      1   33.2730   48.7350    7.8076
    589      1   33.2700   35.9250    1.4460
    590      1   66.7440   59.7270   17.5950
    591      1   33.2470   60.8310   12.8942
    592      1   33.2430   59.5390   12.3600
    593      1   51.6770   36.6970   13.5036
    594      1   33.2320   62.6920    1.5546
    595      1   66.7900   54.7250   18.1350
    596      1   48.3200   64.7220    7.2904
    597      1   66.8150   47.0340   16.8892
    598      1   33.1760   46.4180    8.0520
    599      1   33.1660   41.5120    7.8428
    600      1   66.8340   54.6110    3.5836
    601      1   66.8430   36.0690    8.7712
    602      1   33.1280   49.0690   12.6536
    603      1   66.8910   57.2360   18.0050
    604      1   33.0980   43.9740    8.0772
    605      1   33.0820   38.4730   17.2774
    606      1   66.9250   43.1000    1.9944
    607      1   33.0530   54.8600    6.2716
    608      1   33.0430   50.4250   12.4258
    609      1   66.9840   50.8290    2.6818
    610      1   51.7020   44.2460    5.7164
    611      1   32.9630   38.1990    6.1396
    612      1   32.9500   53.1300   12.0878
    613      1   32.9500   63.6750   17.0338
    614      1   67.0630   61.3160    7.2528
    615      1   32.9060   56.2090    5.7170
    616      1   32.8880   63.6250   18.4866
    617      1   67.1200   37.7900    4.3838
    618      1   67.1480   56.9410    4.6008
    619      1   67.1510   38.7200   12.6690
    620      1   32.8470   42.7740   14.7324
    621      1   32.8290   36.6630    3.7062
    622      1   67.1760   62.8410   14.7466
    623      1   32.8110   54.5460   12.0912
    624      1   67.1950   41.7060    2.4172
    625      1   67.1990   61.9040   15.8036
    626      1   67.2030   43.1840   15.4258
    627      1   67.2130   37.2890   10.7760
    628      1   32.7770   40.3250    7.1680
    629      1   32.7750   58.7610    4.4606
    630      1   32.7590   60.0230    3.6094
    631      1   67.2460   59.2140    5.8302
    632      1   67.2510   36.6870    6.5574
    633      1   32.7430   49.9720    7.3658
    634      1   32.7420   62.4200   14.8566
    635      1   67.2880   39.0280    3.6092
    636      1   67.3130   53.2430    3.4088
    637      1   67.3370   63.3890   12.4728
    638      1   67.3770   62.0210    8.4514
    639      1   32.6140   44.1190   14.3180
    640      1   67.3910   49.5280   17.2062
    641      1   67.3950   45.5190    2.2206
    642      1   32.5430   47.6260    7.6030
    643      1   32.5240   42.7670    7.5566
    644      1   48.2520   28.4520    2.6192
    645      1   67.5130   36.8560    7.9508
    646      1   67.5130   63.0610   11.1472
    647      1   32.4740   45.2080    7.6950