 Lammps data file for helix_gr
 
        1780 atoms
           1 atom types
 
  -50.00000       150.0000     xlo xhi
  -50.00000       150.0000     ylo yhi
           0   50.00000     zlo zhi
 
  Atoms
 
      1      1   50.0130   35.3900   34.5475
      2      1   49.9770   43.8180   23.3720
      3      1   50.0730   28.2670   27.1985
      4      1   50.1130   34.6330   16.6850
      5      1   49.8720   43.6010   28.5295
      6      1   49.8120   41.8880   31.9710
      7      1   49.8010   29.2140   29.8335
      8      1   50.1990   42.9050   30.8060
      9      1   49.7410   30.8020   31.9785
     10      1   49.7370   32.9400   33.5505
     11      1   50.2760   43.4180   22.0190
     12      1   49.7180   42.6510   19.6450
     13      1   49.6040   38.5870   16.3570
     14      1   50.3990   31.6680   33.0370
     15      1   50.4060   29.8750   31.1660
     16      1   50.4070   36.0610   16.6290
     17      1   50.4540   28.1910   24.5070
     18      1   50.4660   40.2770   17.7830
     19      1   50.4860   40.4030   33.9625
     20      1   50.5060   34.0050   34.3980
     21      1   49.4880   37.1130   16.0720
     22      1   49.4840   38.1910   34.1175
     23      1   50.5160   32.2960   17.9380
     24      1   50.5420   28.6330   28.7195
     25      1   49.4570   39.5010   33.6405
     26      1   50.5860   38.9660   17.1710
     27      1   49.4010   43.0110   29.7200
     28      1   50.6040   37.8190   34.9295
     29      1   49.3580   41.2840   17.5735
     30      1   50.6860   28.9350   21.9395
     31      1   50.6880   44.0090   25.8995
     32      1   50.6940   41.6100   33.1180
     33      1   49.2920   28.8170   21.7105
     34      1   49.2890   43.9240   26.1880
     35      1   50.7140   30.3220   19.7145
     36      1   49.2840   43.4720   20.8790
     37      1   49.2630   30.1040   19.4095
     38      1   49.1560   31.9770   17.5600
     39      1   50.9120   36.4320   35.1815
     40      1   50.9200   28.1490   25.9820
     41      1   49.0370   28.1790   24.3430
     42      1   50.9710   33.6840   17.4475
     43      1   39.9830   35.1130   28.4510
     44      1   39.9300   35.1120   13.1300
     45      1   60.0850   43.5250   24.4595
     46      1   40.0550   30.7380   20.5780
     47      1   39.8760   43.5920   26.5000
     48      1   60.1250   62.2070   36.2960
     49      1   60.1460   48.5970   28.4960
     50      1   39.8390   61.3420   15.2160
     51      1   39.8380   46.7950   24.0435
     52      1   60.2030   35.2070   22.6725
     53      1   39.7800   49.2980   21.9645
     54      1   60.2560   53.9570   32.1955
     55      1   39.6980   33.0520   27.0260
     56      1   51.0320   43.8650   24.4805
     57      1   60.3210   33.4560   36.2195
     58      1   39.6290   31.3930   18.1710
     59      1   60.3900   31.0090   31.5455
     60      1   39.6040   55.1530   18.2670
     61      1   60.4200   31.9780   34.0330
     62      1   39.5760   62.5900   14.5305
     63      1   60.4330   36.6270   22.5155
     64      1   60.4810   40.9620   23.2080
     65      1   39.4820   50.6320   21.0785
     66      1   60.5240   57.5330   33.8300
     67      1   39.4410   45.6300   25.0080
     68      1   60.5630   64.3120   37.6795
     69      1   60.5690   39.5560   22.8265
     70      1   39.3820   32.6600   15.9310
     71      1   60.6270   46.5410   26.6995
     72      1   48.9370   43.6600   27.4970
     73      1   60.6360   33.1740   24.1745
     74      1   39.3620   56.4990   17.7220
     75      1   60.5890   31.6770   26.2180
     76      1   60.7300   51.7790   30.6150
     77      1   39.2630   34.2320   14.0165
     78      1   48.9240   42.5190   18.5105
     79      1   39.1690   36.1440   12.3245
     80      1   39.1610   64.9640   12.7350
     81      1   60.9040   56.3030   33.0825
     82      1   60.9050   45.4270   25.8725
     83      1   39.1690   40.7800   27.6670
     84      1   60.9540   50.6870   29.7720
     85      1   60.8770   31.1080   30.0980
     86      1   61.0160   34.4370   23.6860
     87      1   38.9570   53.1690   19.6745
     88      1   61.0620   59.8610   34.8110
     89      1   38.9320   47.7230   23.4380
     90      1   38.9290   59.2620   16.5095
     91      1   61.0770   32.8220   35.0855
     92      1   38.9130   48.7910   22.6800
     93      1   61.0960   34.5570   37.2355
     94      1   51.1110   41.7370   19.6590
     95      1   61.1090   31.6760   32.7305
     96      1   60.9750   31.4110   27.6715
     97      1   38.8290   35.7160   27.7465
     98      1   38.9970   31.2250   20.9290
     99      1   38.7450   60.6600   15.7855
    100      1   61.2760   32.6760   25.4385
    101      1   38.7600   39.4880   27.8645
    102      1   40.8720   30.6120   24.3690
    103      1   38.6480   54.4900   19.0490
    104      1   38.5680   37.0710   27.8380
    105      1   61.4600   42.9480   24.4665
    106      1   61.4600   48.4410   28.0140
    107      1   61.4870   53.9400   31.5875
    108      1   38.4840   33.6600   26.2835
    109      1   61.5250   58.7020   34.0970
    110      1   38.4640   43.2220   26.3460
    111      1   61.5550   62.0600   36.0580
    112      1   61.5870   37.2970   23.2520
    113      1   61.6220   41.5830   23.9330
    114      1   38.3460   31.8280   18.6390
    115      1   39.0690   31.4880   22.3785
    116      1   38.3090   63.1030   14.2075
    117      1   61.7120   38.7390   23.3285
    118      1   38.2610   51.2450   21.1305
    119      1   61.7430   47.3120   27.1940
    120      1   48.8250   34.2130   16.1815
    121      1   61.7610   52.8320   30.8520
    122      1   38.2310   31.6710   20.2905
    123      1   38.1210   57.1450   17.8170
    124      1   38.0880   64.2190   13.2380
    125      1   38.0310   34.9730   26.7190
    126      1   38.0150   41.6750   26.8830
    127      1   62.0050   64.0880   37.6420
    128      1   37.9890   45.3370   25.0535
    129      1   62.0250   60.8680   35.2620
    130      1   37.9600   52.5080   20.4290
    131      1   37.9600   32.9680   16.3275
    132      1   48.7920   35.6870   33.9135
    133      1   37.8730   33.1180   24.9835
    134      1   62.1370   35.0990   24.3820
    135      1   37.8450   58.5060   17.1265
    136      1   37.8310   34.4410   14.2385
    137      1   62.2640   31.9060   29.9530
    138      1   62.2630   56.2330   32.6115
    139      1   37.7360   36.2570   12.3980
    140      1   62.4350   34.7840   37.0875
    141      1   62.3040   50.5090   29.2635
    142      1   62.1910   32.1070   28.4570
    143      1   62.3090   44.9250   25.7510
    144      1   62.2730   33.2640   26.1190
    145      1   62.4440   32.2960   32.4815
    146      1   62.4530   33.2890   34.9200
    147      1   37.5400   47.4250   23.7240
    148      1   62.4780   36.5380   24.1050
    149      1   62.5070   62.9660   36.7820
    150      1   37.4880   49.3850   22.4530
    151      1   37.3840   37.7610   27.0470
    152      1   37.4830   32.5680   17.7700
    153      1   62.5330   55.0220   31.8965
    154      1   62.5510   43.6380   25.1635
    155      1   37.4440   44.0690   25.6135
    156      1   37.3730   39.1990   27.0490
    157      1   62.5770   49.3050   28.4685
    158      1   37.4010   61.1440   15.5525
    159      1   37.3360   55.1200   19.0730
    160      1   51.2680   28.5290   23.3285
    161      1   51.2720   44.0840   28.3950
    162      1   37.2290   32.4410   22.1755
    163      1   37.2280   62.3390   14.6605
    164      1   62.7850   40.8580   24.2960
    165      1   62.7870   39.4200   24.0735
    166      1   37.1900   33.8390   15.4640
    167      1   37.1850   32.2810   20.7365
    168      1   62.8430   34.4660   25.5370
    169      1   63.0360   34.1500   35.9065
    170      1   37.1000   50.4150   21.8585
    171      1   37.0650   35.4340   13.4255
    172      1   62.9420   58.5340   33.8085
    173      1   37.0510   56.4290   18.3860
    174      1   62.7960   32.9030   27.7440
    175      1   36.9940   46.2030   24.3755
    176      1   63.0150   32.4540   31.0400
    177      1   36.8760   35.6110   25.9040
    178      1   63.1310   46.9190   27.0250
    179      1   63.1310   33.0650   33.6185
    180      1   51.3150   31.4030   18.9545
    181      1   63.1580   52.7050   30.4840
    182      1   36.8200   64.4780   12.5450
    183      1   36.7070   33.8600   24.2140
    184      1   63.3000   57.2950   33.0705
    185      1   63.5020   35.6940   37.6050
    186      1   36.6390   48.3570   23.1190
    187      1   36.5930   37.0310   26.2115
    188      1   63.4190   45.6480   26.4090
    189      1   36.5770   53.0410   20.3525
    190      1   36.5750   41.3760   26.2190
    191      1   63.4720   60.6040   35.1535
    192      1   63.4770   51.4750   29.7385
    193      1   36.4930   59.0440   16.8710
    194      1   48.6470   44.1390   23.6895
    195      1   48.6460   28.3830   26.9790
    196      1   48.6450   39.5090   15.8920
    197      1   36.4100   39.9510   26.3440
    198      1   63.6080   37.2160   24.9130
    199      1   36.3020   33.1460   18.3755
    200      1   36.3000   33.5050   22.7990
    201      1   63.8480   33.5880   28.4390
    202      1   36.2620   54.3330   19.6220
    203      1   36.2340   60.2850   16.0205
    204      1   63.7910   38.6550   24.8050
    205      1   36.1630   35.0400   24.6995
    206      1   63.8660   42.9380   25.4455
    207      1   36.1170   33.0880   19.8525
    208      1   63.8880   54.8320   31.6465
    209      1   63.9260   59.4300   34.4140
    210      1   63.8490   35.1670   26.2920
    211      1   63.9370   41.5240   25.1120
    212      1   63.9440   62.5470   36.8310
    213      1   36.0050   43.5820   25.2850
    214      1   64.0170   48.9440   28.2990
    215      1   51.4040   29.6950   20.8915
    216      1   64.2750   33.3090   30.8015
    217      1   64.4650   33.8070   29.6355
    218      1   64.2760   34.7600   35.7895
    219      1   48.5870   40.9870   31.9295
    220      1   35.8540   62.5710   14.0670
    221      1   35.8410   34.3050   16.0070
    222      1   64.3630   34.7790   27.4640
    223      1   64.2390   53.6220   30.9700
    224      1   51.4250   40.5980   18.7335
    225      1   48.5720   37.1020   33.7360
    226      1   64.2880   47.6880   27.6760
    227      1   35.6960   50.9030   21.5695
    228      1   35.6670   63.5930   12.9210
    229      1   35.6620   35.7980   13.8015
    230      1   64.3510   36.5350   25.9220
    231      1   35.6430   42.1770   25.4930
    232      1   35.6370   56.8660   18.1310
    233      1   64.3670   33.8260   33.4250
    234      1   35.5950   45.7830   24.2250
    235      1   48.5590   29.3600   20.3575
    236      1   64.4380   61.3780   35.9985
    237      1   51.4450   40.2330   34.8930
    238      1   35.5400   37.6050   11.8720
    239      1   35.5150   37.7750   25.4015
    240      1   64.6490   35.6070   36.7550
    241      1   35.4580   52.2240   20.7980
    242      1   51.4560   43.6730   30.8445
    243      1   35.4300   34.0120   17.4760
    244      1   35.3830   39.2570   25.5610
    245      1   35.3550   58.1200   17.3065
    246      1   64.7000   56.9990   32.9865
    247      1   35.2830   34.2640   21.9690
    248      1   35.2500   48.0240   23.0285
    249      1   64.7780   44.9920   26.6120
    250      1   48.5180   40.8940   16.4965
    251      1   64.8250   63.1830   37.9000
    252      1   35.1510   44.4300   24.5750
    253      1   35.1440   34.0070   20.4620
    254      1   64.8810   51.1030   29.6110
    255      1   64.9050   39.3340   25.6955
    256      1   35.0940   35.8400   23.8880
    257      1   35.0780   35.2710   15.1575
    258      1   64.9280   34.6600   34.6100
    259      1   48.5050   30.8660   18.2715
    260      1   64.9830   43.5700   26.2360
    261      1   65.0190   55.7460   32.2780
    262      1   34.9670   60.5840   15.4500
    263      1   65.0520   40.7650   25.7800
    264      1   34.9340   36.8990   12.9940
    265      1   34.9170   54.8130   19.2675
    266      1   65.2370   35.4120   28.3725
    267      1   65.1480   49.7760   28.9665
    268      1   34.7600   61.6750   14.3885
    269      1   34.7350   46.6240   23.5190
    270      1   34.7280   37.1550   24.2830
    271      1   65.3410   59.0280   34.4910
    272      1   51.5350   38.9590   35.3830
    273      1   65.3760   37.2430   26.7955
    274      1   34.6210   35.4200   22.5730
    275      1   65.3980   34.7980   29.5665
    276      1   34.5770   56.0380   18.4635
    277      1   48.4570   28.3990   22.9355
    278      1   34.5200   41.5610   24.8325
    279      1   34.4900   50.1390   21.7525
    280      1   48.4480   29.3880   29.5060
    281      1   34.4800   63.5900   11.9930
    282      1   34.4250   40.0660   24.7755
    283      1   48.4400   39.8080   32.7540
    284      1   51.5610   36.5450   17.2835
    285      1   34.3620   34.7780   18.0630
    286      1   65.6400   47.1450   27.8590
    287      1   65.6550   53.2490   30.9540
    288      1   34.3200   48.8270   22.3230
    289      1   34.2620   34.8300   19.5715
    290      1   65.7470   38.6030   26.6770
    291      1   65.7580   57.8360   33.8020
    292      1   65.7970   36.4300   36.7435
    293      1   65.8410   45.7210   27.4115
    294      1   34.1200   52.5120   20.3910
    295      1   65.8620   36.6200   27.9755
    296      1   65.8850   60.9050   36.2905
    297      1   65.9790   51.9600   30.3405
    298      1   48.4000   33.2870   33.0660
    299      1   33.9900   58.4060   16.7015
    300      1   66.0430   37.4460   37.8570
    301      1   66.0580   35.5540   34.4455
    302      1   66.0340   35.3980   30.6245
    303      1   66.0750   41.4700   26.6490
    304      1   66.0760   42.8610   26.7715
    305      1   33.8980   43.8690   23.9790
    306      1   33.8930   53.8100   19.5910
    307      1   33.8830   35.9090   15.7830
    308      1   33.8610   59.6290   15.6950
    309      1   33.7800   38.0050   23.4885
    310      1   51.6230   37.9770   17.5400
    311      1   33.6970   36.2270   21.7345
    312      1   33.6710   37.4190   13.4820
    313      1   66.3330   59.7300   35.5225
    314      1   33.6290   42.4050   24.0285
    315      1   66.3850   55.3680   32.4285
    316      1   33.6080   39.4340   23.8210
    317      1   33.5850   61.7320   13.4880
    318      1   33.5770   35.7090   17.2195
    319      1   66.4710   49.2190   29.1520
    320      1   33.4920   62.6250   12.2385
    321      1   33.4770   35.8940   20.2400
    322      1   66.5530   36.4770   35.6135
    323      1   66.5650   35.7500   33.1315
    324      1   48.3400   31.0740   31.5875
    325      1   33.3990   46.0850   23.0285
    326      1   51.6630   42.8720   21.7980
    327      1   66.6700   54.0800   31.7810
    328      1   66.6880   61.5020   37.5150
    329      1   66.6910   47.8440   28.6675
    330      1   33.2770   56.2470   17.8840
    331      1   66.7650   39.3140   27.6700
    332      1   48.3230   32.9440   16.5655
    333      1   33.2220   37.4970   22.2550
    334      1   33.2020   36.9560   14.9150
    335      1   66.8040   37.2250   29.0870
    336      1   66.9460   40.7500   27.5570
    337      1   33.0420   50.3950   21.0155
    338      1   66.9790   36.6400   30.4285
    339      1   48.3030   44.1010   25.0860
    340      1   33.0070   44.6820   23.1380
    341      1   33.0060   38.5750   12.7420
    342      1   32.9720   57.3610   16.9470
    343      1   67.0350   44.9730   27.9450
    344      1   48.2950   36.6590   15.3680
    345      1   32.9440   48.3240   21.9425
    346      1   67.0650   43.5350   27.6810
    347      1   32.9100   51.4460   20.4260
    348      1   67.1070   57.3230   34.0780
    349      1   67.1290   38.3820   37.8455
    350      1   67.2510   51.3580   30.5675
    351      1   32.7240   40.2630   22.9540
    352      1   32.6970   59.6800   14.8375
    353      1   67.3130   38.5930   28.8580
    354      1   32.6850   36.7560   19.2860
    355      1   32.6840   36.6230   17.7740
    356      1   32.6500   41.7390   23.1040
    357      1   51.7360   44.2270   27.0740
    358      1   51.7360   31.4480   33.3640
    359      1   32.6290   60.6920   13.6920
    360      1   67.4150   56.1090   33.4130
    361      1   32.6580   53.8660   18.9670
    362      1   32.5380   46.9820   22.1570
    363      1   67.4760   49.9430   30.0230
    364      1   67.5370   36.9100   32.9730
    365      1   51.7560   42.6440   33.2275
    366      1   67.6050   37.5070   35.4380
    367      1   32.3830   38.3960   21.4270
    368      1   51.7670   29.7870   31.4455
    369      1   67.6680   59.1460   36.0320
    370      1   32.3640   55.0940   18.0835
    371      1   67.7090   37.3500   31.6000
    372      1   32.2410   37.6900   15.5695
    373      1   32.1880   49.2680   21.0770
    374      1   67.8460   47.1800   29.1890
    375      1   67.8580   41.4340   28.5520
    376      1   67.9340   38.3960   36.5565
    377      1   32.0650   37.9870   19.9520
    378      1   32.0560   39.7330   21.7930
    379      1   67.9500   53.4940   32.1250
    380      1   32.0290   37.5580   16.9915
    381      1   67.9760   42.8280   28.5535
    382      1   67.9880   45.7330   28.9145
    383      1   68.0250   57.9320   35.2760
    384      1   68.0820   37.7440   34.1115
    385      1   31.8910   44.1210   22.2625
    386      1   31.8810   39.2460   13.4715
    387      1   31.8660   57.4250   16.0780
    388      1   68.1470   39.2770   29.9455
    389      1   31.8040   42.6420   22.1790
    390      1   68.2080   52.0600   31.5250
    391      1   31.7210   58.5210   14.9755
    392      1   31.8560   51.7240   19.6220
    393      1   31.6610   60.4780   12.5880
    394      1   68.3730   38.6380   31.3275
    395      1   68.3770   59.6160   37.3180
    396      1   31.5850   38.8240   14.8660
    397      1   31.8270   53.0150   18.8555
    398      1   68.5110   40.6820   29.7525
    399      1   68.5620   49.2600   30.5025
    400      1   31.3850   46.4970   21.3215
    401      1   68.6250   55.4490   33.9015
    402      1   31.3480   38.9210   19.0510
    403      1   31.3120   38.6240   17.6025
    404      1   68.7120   47.8710   30.1530
    405      1   31.2700   40.4370   12.8685
    406      1   31.2610   40.6840   20.8420
    407      1   51.8760   33.7160   34.9130
    408      1   31.2080   55.1470   17.1600
    409      1   68.8260   39.4810   36.3905
    410      1   31.1300   45.0390   21.3175
    411      1   68.8730   43.5300   29.6320
    412      1   68.8750   54.1220   33.2605
    413      1   68.8940   38.9580   33.9415
    414      1   68.9150   44.9980   29.7290
    415      1   31.0830   42.1170   21.0780
    416      1   31.0780   48.8420   20.3020
    417      1   31.0170   56.2640   16.1380
    418      1   69.0130   39.4120   32.5295
    419      1   69.0390   40.4800   37.6150
    420      1   69.1210   57.1870   35.8220
    421      1   30.8700   40.2800   19.5745
    422      1   30.8080   50.9500   19.1845
    423      1   30.8130   59.2790   12.6340
    424      1   30.8040   58.3340   13.8760
    425      1   48.0760   28.2530   25.5990
    426      1   69.2450   41.3330   30.8895
    427      1   69.2660   51.3550   32.0715
    428      1   30.7850   39.7200   15.5415
    429      1   69.3090   39.8060   35.1015
    430      1   30.6810   47.4140   20.3320
    431      1   30.6770   39.6270   16.7895
    432      1   51.9370   28.6510   29.0050
    433      1   69.3960   49.9690   31.5935
    434      1   30.4440   49.6900   19.2750
    435      1   69.4140   55.9190   35.1120
    436      1   30.8300   53.1000   17.9880
    437      1   69.4880   42.7880   30.7675
    438      1   69.5200   40.7020   32.2850
    439      1   28.7080   45.2840   15.1655
    440      1   30.5240   54.0460   17.1245
    441      1   69.6030   47.1340   30.9285
    442      1   30.3730   43.0790   20.0780
    443      1   69.6640   45.7090   30.7790
    444      1   30.3330   44.5210   20.2340
    445      1   30.3640   41.3600   13.6675
    446      1   69.7400   57.5400   37.1760
    447      1   30.2100   40.8430   17.1635
    448      1   69.8440   41.7210   37.4905
    449      1   30.3150   42.9760   11.7130
    450      1   30.2340   51.8820   18.0600
    451      1   30.1000   56.1100   15.0040
    452      1   69.9340   53.1380   33.8885
    453      1   69.9450   40.9930   34.9155
    454      1   30.1290   40.9940   15.1075
    455      1   30.0320   57.0840   13.8445
    456      1   48.0000   42.3520   29.8570
    457      1   70.0370   41.4350   33.5105
    458      1   70.0670   51.8050   33.2990
    459      1   70.1440   43.4910   31.9335
    460      1   29.7920   46.8490   19.2410
    461      1   29.6360   41.8130   16.0985
    462      1   70.2670   41.9100   36.0800
    463      1   70.2710   49.1530   32.4795
    464      1   29.9350   42.5560   13.1240
    465      1   70.2770   44.9440   31.8480
    466      1   29.6990   45.4150   19.1475
    467      1   70.3240   55.0080   35.7745
    468      1   70.3280   47.7060   32.1645
    469      1   47.9660   44.2040   21.1975
    470      1   70.4180   42.7690   33.2810
    471      1   29.5680   49.2270   18.2375
    472      1   29.5450   53.7560   15.9730
    473      1   47.9490   34.6500   33.2795
    474      1   29.5530   51.4870   17.1715
    475      1   29.4330   54.7790   14.9260
    476      1   52.0580   44.2610   29.6235
    477      1   70.6010   53.5470   35.2050
    478      1   29.3940   56.6680   12.4660
    479      1   52.0630   42.0120   20.6720
    480      1   71.1990   52.6150   35.9270
    481      1   47.9270   35.1860   15.4215
    482      1   29.2460   47.7000   18.1150
    483      1   70.6230   50.7990   34.1295
    484      1   70.7620   49.6540   33.7980
    485      1   70.6410   43.1710   35.7395
    486      1   29.2810   44.7750   17.9335
    487      1   70.8010   55.2260   37.1405
    488      1   70.6990   43.5880   34.3455
    489      1   29.1300   50.2340   17.0505
    490      1   70.8750   47.0390   33.1540
    491      1   29.0380   52.4630   15.8695
    492      1   28.8850   55.3200   12.3720
    493      1   28.8460   45.9620   12.4770
    494      1   28.8570   54.4050   13.6730
    495      1   70.9320   45.0690   34.2430
    496      1   28.7690   45.7820   16.6220
    497      1   70.6550   45.7190   33.1970
    498      1   28.7150   47.1750   16.8095
    499      1   52.1310   43.6890   32.1185
    500      1   28.6350   46.3230   13.9280
    501      1   28.5350   52.0410   14.6520
    502      1   28.4850   49.6450   15.7010
    503      1   28.4670   52.9600   13.5030
    504      1   28.3910   48.1130   15.5825
    505      1   28.2960   50.6320   14.4760
    506      1   28.2630   52.4840   12.1820
    507      1   28.2960   47.7360   14.2310
    508      1   52.1780   36.1650   35.8570
    509      1   28.2230   48.6930   12.9380
    510      1   28.1610   51.0580   11.9900
    511      1   28.0910   50.1150   13.1965
    512      1   47.7620   28.9230   28.1730
    513      1   52.2390   34.1040   17.9730
    514      1   47.7360   43.4760   18.1540
    515      1   52.3180   28.2590   26.2645
    516      1   47.6620   32.2870   32.1615
    517      1   47.6520   30.3210   30.4475
    518      1   47.6280   44.4700   22.6550
    519      1   52.3770   43.7080   24.1630
    520      1   47.6160   39.0750   14.9815
    521      1   52.4120   41.2410   35.3230
    522      1   47.5730   41.3460   30.9015
    523      1   52.4390   30.4940   32.5850
    524      1   52.4440   32.4300   34.3925
    525      1   47.5410   43.3880   27.6950
    526      1   47.5080   41.8770   16.0540
    527      1   52.5150   42.4440   34.5015
    528      1   52.5340   35.5380   17.8645
    529      1   52.5570   29.1440   30.3980
    530      1   52.5710   39.7710   18.9080
    531      1   47.4190   37.5510   32.9735
    532      1   47.3830   37.6990   14.7425
    533      1   52.6480   38.4610   18.3265
    534      1   52.6490   34.8330   35.7380
    535      1   52.6530   31.8480   19.2965
    536      1   52.6620   38.6560   36.2565
    537      1   52.6650   28.7560   23.5655
    538      1   47.3150   38.9470   32.4690
    539      1   52.7090   43.1160   22.8340
    540      1   52.8260   30.0140   21.2195
    541      1   47.1590   43.2250   16.7750
    542      1   52.8650   28.3950   27.7660
    543      1   47.1090   29.3020   20.1990
    544      1   47.0760   42.6700   28.8650
    545      1   47.0570   30.7650   17.9700
    546      1   47.0470   28.4740   22.7755
    547      1   52.9970   37.2480   36.4785
    548      1   46.9640   44.5510   18.8910
    549      1   46.9530   44.7580   20.2820
    550      1   46.8950   32.6790   16.2035
    551      1   53.1100   44.4590   26.6665
    552      1   53.1220   33.1610   18.8055
    553      1   46.8670   44.1730   25.4445
    554      1   53.1820   44.6070   32.3280
    555      1   53.2490   28.5280   25.0265
    556      1   46.7350   35.0200   32.6715
    557      1   46.7230   41.4040   14.8675
    558      1   46.7040   39.9870   14.3990
    559      1   46.6860   28.4440   25.4140
    560      1   53.3360   41.1230   36.3370
    561      1   53.3610   45.0220   29.8920
    562      1   53.3970   43.5850   34.7450
    563      1   53.4070   44.0840   25.1750
    564      1   46.5600   34.8280   14.9190
    565      1   53.4410   41.3210   20.6650
    566      1   53.4740   31.0850   20.3845
    567      1   53.4950   39.8120   36.7805
    568      1   53.5050   29.4800   22.5045
    569      1   46.4580   43.7240   26.7445
    570      1   46.4500   62.2670   11.8550
    571      1   46.4300   28.8340   21.3920
    572      1   46.4260   36.5060   32.5430
    573      1   53.6340   40.2190   19.8260
    574      1   46.3640   29.9460   18.9490
    575      1   46.3550   60.8430   11.9480
    576      1   46.3290   40.5950   30.8710
    577      1   46.3150   44.9200   23.1095
    578      1   53.6900   44.7030   33.6805
    579      1   46.3090   29.2390   27.8840
    580      1   46.2990   32.6490   31.6180
    581      1   46.2800   31.6110   16.8965
    582      1   53.7310   36.0310   18.5235
    583      1   46.2420   44.1450   16.1585
    584      1   46.2370   28.4450   23.9980
    585      1   46.2180   39.3760   31.6135
    586      1   53.7830   37.5220   18.7285
    587      1   53.8110   45.3520   31.3225
    588      1   46.1890   30.6720   29.9890
    589      1   46.1420   37.2210   14.0320
    590      1   53.8590   30.4610   32.8255
    591      1   53.8700   32.2740   34.7065
    592      1   46.0300   33.5890   15.3165
    593      1   53.9920   34.5640   36.1940
    594      1   54.0290   29.2030   30.5705
    595      1   54.0810   43.4700   36.0455
    596      1   45.8980   44.6610   24.5025
    597      1   54.1230   42.2110   36.8155
    598      1   45.8740   45.5210   18.1280
    599      1   54.1400   42.6840   22.5990
    600      1   45.8510   42.4570   14.2810
    601      1   45.8450   58.0260   11.8810
    602      1   45.8230   34.0180   31.9145
    603      1   45.8030   28.8900   26.5055
    604      1   54.2030   36.9700   37.1150
    605      1   54.2400   45.0210   27.4725
    606      1   45.7290   45.3660   16.7740
    607      1   45.7180   43.8500   14.8510
    608      1   54.3070   28.5940   27.9695
    609      1   54.3110   45.4690   28.8960
    610      1   45.6870   35.8220   14.1550
    611      1   45.6790   39.6460   13.5295
    612      1   45.6660   45.6880   20.8715
    613      1   45.6010   42.1190   29.0270
    614      1   54.4010   33.7060   19.3180
    615      1   45.5320   30.0550   28.7585
    616      1   54.4710   41.7500   21.5560
    617      1   45.5130   31.7870   30.5850
    618      1   54.5310   45.8250   34.0370
    619      1   45.4420   56.5510   11.8195
    620      1   54.5820   31.2590   33.9185
    621      1   54.6260   39.5110   37.6815
    622      1   45.3660   45.5830   22.2420
    623      1   54.6440   33.2910   35.6830
    624      1   45.3500   38.2560   13.4015
    625      1   54.6560   28.8350   25.3105
    626      1   54.6590   29.8130   31.8585
    627      1   45.3330   63.1180   12.3380
    628      1   45.3140   60.2130   12.7310
    629      1   54.7150   35.1410   19.1440
    630      1   45.2810   41.0500   29.9880
    631      1   54.7270   35.6180   36.9495
    632      1   54.7420   44.7320   36.3935
    633      1   45.2480   64.5600   11.8740
    634      1   45.2400   37.0310   31.8190
    635      1   54.7920   43.9590   24.7135
    636      1   54.8010   31.5020   20.8315
    637      1   54.8310   39.4280   19.9950
    638      1   54.8510   28.9090   29.3805
    639      1   45.1360   38.5050   31.3940
    640      1   45.1330   58.8150   12.8480
    641      1   54.8720   46.4040   31.6900
    642      1   54.8850   29.8620   22.8605
    643      1   54.9000   45.9690   35.4500
    644      1   54.9030   38.0420   19.4790
    645      1   45.0150   46.5790   18.7400
    646      1   45.0050   42.0690   13.1470
    647      1   54.9990   38.0770   37.7940