 Lammps data file for helix_gr
 
        1722 atoms
           1 atom types
 
  -50.00000       150.0000     xlo xhi
  -50.00000       150.0000     ylo yhi
           0   40.00000     zlo zhi
 
  Atoms
 
      1      1   49.9930   58.2660   13.5652
      2      1   49.9800   60.1920   12.1028
      3      1   49.9790   28.2260   38.5976
      4      1   49.9730   28.6360    2.9668
      5      1   49.9610   28.2390    1.5160
      6      1   49.9550   42.4620   34.4632
      7      1   50.0570   28.5880   37.1544
      8      1   50.0730   56.0400   19.2892
      9      1   50.0770   41.5560   33.4268
     10      1   49.8970   39.2430   31.7732
     11      1   50.1050   71.1300   23.5676
     12      1   50.1350   69.9180   14.3548
     13      1   49.8650   56.8140   24.2824
     14      1   50.1410   56.9020   15.5388
     15      1   49.8260   43.9690   39.4548
     16      1   50.2020   30.1090    5.6780
     17      1   49.7850   68.8670   26.7572
     18      1   50.2280   35.2770   31.4632
     19      1   50.2340   68.9360   13.3032
     20      1   50.2650   71.3750   16.9704
     21      1   50.2910   38.4560    8.5964
     22      1   50.2980   66.2630   28.0856
     23      1   49.6880   57.9970   26.4028
     24      1   50.3620   43.6320    3.3332
     25      1   50.3660   56.1290   17.9424
     26      1   50.3860   31.1110    6.7784
     27      1   50.3890   60.4140   27.7756
     28      1   49.6010   37.8770   31.2124
     29      1   49.5980   33.2180    7.8584
     30      1   50.4040   30.2450   34.4180
     31      1   49.5950   71.8610   20.8464
     32      1   49.5880   42.4090    5.2508
     33      1   50.4120   43.9140    1.9792
     34      1   50.4280   40.7720    7.5860
     35      1   50.4300   70.3800   24.8232
     36      1   50.4340   31.0950   33.4704
     37      1   50.4350   35.8180    8.8724
     38      1   50.4440   66.4220   11.6780
     39      1   50.4500   64.7250   28.4092
     40      1   49.5380   56.5700   16.9028
     41      1   50.4730   71.7690   18.4528
     42      1   50.5060   61.7580   28.2292
     43      1   50.5460   36.7070   31.5588
     44      1   49.4460   69.8810   25.8032
     45      1   49.4450   56.0590   21.9256
     46      1   49.4170   62.4740   28.9296
     47      1   49.3840   57.6970   14.7232
     48      1   49.3710   43.7740   36.9492
     49      1   49.3680   61.5880   11.8892
     50      1   49.3550   71.8360   19.4116
     51      1   49.3460   43.9040    0.9552
     52      1   49.3380   32.5240   32.1288
     53      1   49.3290   63.9830   28.9952
     54      1   50.7010   43.2770   36.6480
     55      1   49.2980   31.9780    7.0736
     56      1   49.2820   59.4050   13.0308
     57      1   49.2530   43.0290    3.9012
     58      1   49.2030   40.5320    6.9484
     59      1   49.2020   59.6720   28.1616
     60      1   49.1670   66.8150   12.3404
     61      1   50.8460   42.6370    6.0328
     62      1   49.1520   57.0530   25.5536
     63      1   50.8530   56.2500   21.6812
     64      1   49.1210   31.3660   32.8236
     65      1   50.8830   33.5340    8.4728
     66      1   49.1100   35.6800    8.2772
     67      1   50.9210   32.9460   32.4884
     68      1   50.7610   65.1450   11.1492
     69      1   50.9360   39.7970    8.5152
     70      1   50.9380   37.2240    9.1160
     71      1   49.0440   29.5080   34.9940
     72      1   49.0400   68.1320   13.1144
     73      1   50.9710   42.5960   35.4456
     74      1   49.0160   66.9910   28.2540
     75      1   49.0100   38.2270    7.9712
     76      1   60.0010   36.6320   36.0544
     77      1   48.9990   56.1550   23.2692
     78      1   60.0260   35.2530   36.3576
     79      1   39.9660   32.9750   30.8328
     80      1   51.0080   71.7420   21.2248
     81      1   60.0850   43.2960   14.8572
     82      1   39.9070   31.5620   32.9456
     83      1   39.9040   69.1610   21.1264
     84      1   39.8960   34.0310    3.0668
     85      1   60.1280   69.1450   14.8968
     86      1   60.1500   30.7390    4.5268
     87      1   60.1920   67.2310   22.0660
     88      1   48.9810   70.9910   16.4664
     89      1   60.2090   32.3770    8.3228
     90      1   39.7870   55.2270   35.3776
     91      1   39.7850   68.1370   27.4996
     92      1   39.7650   56.5600   34.9120
     93      1   60.2380   68.6580   20.0568
     94      1   39.7580   53.2850   19.8676
     95      1   60.2500   57.6870    5.4224
     96      1   39.7420   40.5580   26.0320
     97      1   39.7370   35.4290    3.5480
     98      1   60.2880   35.0500   11.0836
     99      1   60.2910   68.6290   13.5672
    100      1   60.3100   56.3060    4.9276
    101      1   60.3180   53.5510    3.8828
    102      1   60.3220   31.1430    5.8200
    103      1   39.6770   50.0850   21.9696
    104      1   60.3260   47.0730    0.0788
    105      1   60.3310   52.1090    3.2004
    106      1   39.6570   50.6420   37.6160
    107      1   60.4110   67.1410   11.1064
    108      1   60.4360   43.9000   38.0508
    109      1   60.4520   66.1890   10.0188
    110      1   39.5470   34.7250   29.1924
    111      1   39.5440   30.7770   36.6852
    112      1   39.5320   65.6400   30.4968
    113      1   60.4690   41.8390   14.4904
    114      1   39.4410   49.4320   38.4404
    115      1   51.0560   58.6350   26.0900
    116      1   39.4000   59.5060   34.0348
    117      1   39.3900   32.5360    1.4224
    118      1   60.6100   49.2850    1.4260
    119      1   39.3870   36.8960   27.7116
    120      1   60.6480   51.0630   18.8164
    121      1   60.6640   34.0270   10.1128
    122      1   48.9330   35.0910   30.9496
    123      1   60.6910   38.9210   36.4064
    124      1   60.7090   52.4290   19.6948
    125      1   39.2860   63.4720   16.4684
    126      1   60.7160   45.6030   15.9860
    127      1   39.2700   66.5800   29.4468
    128      1   39.2620   51.1640   21.1388
    129      1   39.2540   57.8360   17.2852
    130      1   39.2430   31.3980   39.1500
    131      1   60.7670   33.4900   37.8508
    132      1   39.2060   43.0170   24.9980
    133      1   39.2030   47.7620   23.0240
    134      1   39.1950   39.2340   26.4648
    135      1   60.8100   37.1220   12.4364
    136      1   39.1790   67.6460   19.0828
    137      1   60.8360   64.6320   23.1280
    138      1   60.8410   54.9030   21.2396
    139      1   39.1530   60.8830   33.4892
    140      1   60.8650   31.0930    2.1488
    141      1   39.1310   37.8570    3.5660
    142      1   60.8700   45.9860   39.2844
    143      1   48.9130   44.0720   38.3284
    144      1   39.1160   62.0700   16.4352
    145      1   39.1070   68.8490   24.8248
    146      1   39.1000   45.3770   24.0316
    147      1   60.9080   64.0630    8.3656
    148      1   39.0810   33.6440    2.1448
    149      1   39.0700   31.1600   35.3268
    150      1   60.9380   68.9320   17.2608
    151      1   48.9060   70.2280   15.1908
    152      1   39.0370   59.2260   16.8640
    153      1   60.9760   56.1890   21.9228
    154      1   39.0190   53.1420   36.6184
    155      1   48.9000   41.4780   32.4068
    156      1   61.0110   63.1830   23.3972
    157      1   61.0470   44.1840   15.5596
    158      1   61.0550   37.4630   36.5776
    159      1   38.9430   65.6650   17.5016
    160      1   61.0630   32.0270   39.8480
    161      1   38.9300   68.8740   23.3816
    162      1   61.0810   48.1190    0.5836
    163      1   51.1090   68.3270   26.7112
    164      1   61.1060   34.7490   37.3152
    165      1   38.8830   36.3880    3.2388
    166      1   61.1170   62.8230    7.5840
    167      1   38.8810   68.2570   20.4876
    168      1   61.1550   58.9570   22.9896
    169      1   61.1560   60.3900   23.3044
    170      1   61.1710   68.8030   15.8460
    171      1   61.1930   31.1940    3.5936
    172      1   38.8030   40.3020    3.1476
    173      1   61.2070   47.9790   17.2652
    174      1   38.7710   42.6580    2.3836
    175      1   61.2470   68.0180   13.1084
    176      1   38.7480   48.8860   22.2580
    177      1   38.7470   44.9210    1.2896
    178      1   61.2730   39.1690   13.5656
    179      1   38.7140   31.3880   37.7876
    180      1   48.8700   29.9150    4.9724
    181      1   38.6960   63.5830   31.9724
    182      1   38.6860   41.6800   25.3544
    183      1   61.3150   59.8790    6.0048
    184      1   61.3200   41.3440   37.1700
    185      1   61.3290   35.9540   11.6396
    186      1   61.3520   66.6090   21.5296
    187      1   51.1360   56.0320   20.3604
    188      1   48.8620   28.7840   36.3336
    189      1   61.3820   68.0430   19.5424
    190      1   38.6170   51.9730   37.3580
    191      1   38.6080   47.1220    0.0636
    192      1   38.6070   55.7410   18.3928
    193      1   61.3960   58.4980    5.3896
    194      1   61.4000   32.4310    7.6440
    195      1   38.5820   33.0980   31.2872
    196      1   61.4250   67.3060   11.8592
    197      1   38.5490   54.5260   36.2364
    198      1   38.5220   32.3220   32.5728
    199      1   38.5220   32.4190    0.2044
    200      1   61.4920   31.8490    6.2956
    201      1   61.4950   51.7430    2.4840
    202      1   38.4930   64.7490   31.0540
    203      1   61.5130   55.8460    4.3132
    204      1   61.5150   54.4670    3.7408
    205      1   38.4760   67.8670   26.9400
    206      1   51.1530   28.1460    0.8104
    207      1   38.4480   66.4920   18.5996
    208      1   48.8450   40.3310   31.5776
    209      1   38.4310   46.4930   23.3008
    210      1   38.4270   64.3180   17.2948
    211      1   61.5950   50.4230    1.7760
    212      1   48.8400   58.4110   27.5408
    213      1   61.6140   33.1230   39.0532
    214      1   38.3680   57.3250   35.1392
    215      1   38.3450   44.1080   24.2976
    216      1   61.6570   31.8800    1.1984
    217      1   38.3390   53.4720   19.5692
    218      1   61.6670   65.3460    9.5628
    219      1   61.6860   46.5230   16.7472
    220      1   38.3130   38.8980    3.1212
    221      1   61.7000   39.8700   36.9964
    222      1   61.7200   38.0170   12.9400
    223      1   61.7280   65.3290   22.1132
    224      1   61.7630   68.2460   18.1760
    225      1   38.2290   58.6890   34.5836
    226      1   38.1990   49.3820   38.8640
    227      1   61.8200   43.6030   38.1228
    228      1   38.1800   34.8250   29.4208
    229      1   61.8530   50.1380   18.5848
    230      1   61.8730   41.3770   14.6376
    231      1   38.1210   57.0920   17.8744
    232      1   38.1170   68.1410   25.6148
    233      1   48.8120   43.2110   34.5488
    234      1   38.0630   41.3210    2.6172
    235      1   51.1960   28.1910   39.4268
    236      1   61.9720   67.0640   20.2992
    237      1   62.0080   52.8030   20.0776
    238      1   37.9770   43.6570    1.7876
    239      1   51.2030   41.9300    7.2504
    240      1   37.9470   36.8250   27.8608
    241      1   37.9350   66.3940   29.0384
    242      1   62.0720   64.5870    8.9500
    243      1   51.2080   59.7050   11.5328
    244      1   37.9030   61.4470   17.1040
    245      1   48.7900   71.3820   23.1844
    246      1   37.8940   45.9410    0.7032
    247      1   37.8910   34.6120    1.7564
    248      1   51.2130   43.8770   39.0844
    249      1   62.1310   48.7990   17.9512
    250      1   62.1470   34.0280    9.5208
    251      1   37.8530   35.9580    2.3692
    252      1   62.1520   54.1320   20.7628
    253      1   37.8360   51.1680   20.7960
    254      1   51.2170   28.8110    3.6932
    255      1   37.8170   67.7410   21.2940
    256      1   37.8120   59.9820   17.2432
    257      1   37.7920   61.4350   33.2472
    258      1   62.2090   36.9670   37.3660
    259      1   37.7760   39.0270   26.4920
    260      1   37.7690   68.0690   22.7424
    261      1   62.2350   35.6320   37.8004
    262      1   51.2510   71.3550   22.7324
    263      1   62.2560   62.5710   22.6936
    264      1   37.7230   48.1790   39.5536
    265      1   62.2880   45.7670   39.2040
    266      1   37.7110   32.0450   34.8492
    267      1   37.7090   54.8280   18.9528
    268      1   37.7080   34.0410   30.5324
    269      1   62.2970   42.2980   37.7928
    270      1   48.7680   68.2620   27.5632
    271      1   62.3310   40.0790   14.0684
    272      1   62.3380   61.2300   22.7492
    273      1   62.3430   31.9270    4.0068
    274      1   62.3470   56.7940   21.9064
    275      1   62.3580   67.7090   13.9152
    276      1   62.3580   58.2780   22.3548
    277      1   62.3800   43.7790   15.7532
    278      1   48.7610   29.1220    3.6684
    279      1   37.5980   62.6840   32.4404
    280      1   62.4080   67.9910   15.3148
    281      1   62.4110   66.6410   11.5700
    282      1   62.4170   33.2530    8.2188
    283      1   37.5720   66.9780   27.7848
    284      1   51.2460   39.4790   32.6324
    285      1   62.4700   32.1780    5.4156
    286      1   37.5280   32.5180   33.4196
    287      1   48.7510   56.0320   19.4804
    288      1   62.5420   62.1370    7.2612
    289      1   62.5900   60.7460    6.4052
    290      1   62.6080   48.0020    0.3556
    291      1   37.3840   33.2870   39.8744
    292      1   37.3710   32.2860   37.5744
    293      1   37.3660   52.4100   20.1220
    294      1   37.3600   64.9700   30.4184
    295      1   37.3470   35.8380   28.7652
    296      1   37.3420   51.9390   37.7264
    297      1   51.2670   34.7460    9.0512
    298      1   62.6750   57.9930    5.0012
    299      1   37.3130   41.4140   25.2532
    300      1   37.3070   55.0580   36.3100
    301      1   62.7030   35.8640   11.2188
    302      1   62.7080   65.6020   10.3820
    303      1   37.2890   63.7950   17.9844
    304      1   37.2830   48.8760   21.9080
    305      1   62.7290   52.6540    2.6112
    306      1   62.7330   56.7230    4.4196
    307      1   37.2610   66.0010   19.4380
    308      1   62.7620   53.9370    3.1860
    309      1   48.7220   41.4610    5.8308
    310      1   62.7910   33.9720   39.5268
    311      1   62.8010   44.4640   38.6896
    312      1   37.1810   37.9120   27.2384
    313      1   62.8220   42.4290   15.1980
    314      1   62.8310   64.5710   21.5548
    315      1   62.8350   32.6770    1.6588
    316      1   37.1480   56.5250   35.6784
    317      1   37.1410   50.5580   38.4080
    318      1   62.8930   67.5010   17.6256
    319      1   48.7100   28.2200    0.7700
    320      1   37.0890   38.5630    2.4016
    321      1   37.0880   46.5650   22.9328
    322      1   37.0630   34.3710    0.7040
    323      1   37.0320   65.5790   29.5644
    324      1   36.9850   67.5370   24.9312
    325      1   63.0290   46.0210   16.8336
    326      1   36.9500   40.0840   25.9580
    327      1   63.0590   50.7680   19.0948
    328      1   63.0620   66.3330   19.7632
    329      1   36.9340   62.3260   17.8264
    330      1   36.9290   66.6400   20.7276
    331      1   63.0720   35.2210   38.8096
    332      1   36.9270   32.4710   36.0932
    333      1   63.0960   50.3320    1.4752
    334      1   63.1060   39.2390   37.7528
    335      1   36.8770   37.0920    1.9768
    336      1   48.6860   28.1620   39.2352
    337      1   63.1430   34.9600   10.0712
    338      1   63.1520   52.0670   19.7092
    339      1   63.1840   63.2620   21.8656
    340      1   36.8140   67.4400   23.5020
    341      1   63.1930   32.6220    3.0224
    342      1   36.7860   50.0790   21.2768
    343      1   63.2280   37.7800   12.5796
    344      1   36.7720   57.9240   18.0932
    345      1   36.7680   59.3430   34.3056
    346      1   36.7620   33.1640   38.6064
    347      1   36.7610   44.1850   23.9864
    348      1   63.2510   37.7940   37.9516
    349      1   36.7350   40.9810    2.1044
    350      1   63.2710   46.7370   39.7700
    351      1   63.3040   67.3750   16.1792
    352      1   36.6800   59.4240   17.8828
    353      1   63.3210   63.7650    8.6592
    354      1   51.3380   29.4920    5.1008
    355      1   36.6180   64.6520   19.0296
    356      1   63.3920   44.6970   16.2660
    357      1   51.3410   57.2090   24.0208
    358      1   63.4170   33.6720    0.7820
    359      1   36.5780   60.7120   33.5148
    360      1   48.6570   34.2920    7.8420
    361      1   63.4770   54.6850   20.8308
    362      1   36.4940   43.4010    1.4672
    363      1   63.5360   33.0040    5.9340
    364      1   63.5370   56.0610   21.2912
    365      1   63.5440   65.1200   20.4348
    366      1   63.5610   60.5390   22.0184
    367      1   63.5750   33.4970    7.3892
    368      1   63.5820   59.0210   21.9388
    369      1   51.3590   34.2280   32.1660
    370      1   63.5960   48.2550   17.9072
    371      1   36.4030   33.2910   33.2276
    372      1   63.6020   66.5670   18.4556
    373      1   36.3950   47.8230   22.3056
    374      1   36.3920   45.7630    0.6088
    375      1   36.3850   55.0270   19.0784
    376      1   36.3770   34.4060   31.0012
    377      1   63.6380   49.0770    0.8972
    378      1   63.6710   62.7880    7.9728
    379      1   63.6760   39.9100   13.8852
    380      1   36.3130   62.9730   31.8700
    381      1   36.3100   66.4790   27.2084
    382      1   63.6920   36.7940   11.6552
    383      1   51.3710   40.6440   33.4564
    384      1   63.7200   41.8040   38.2636
    385      1   36.2770   64.0940   30.7660
    386      1   36.2580   48.0220   39.6144
    387      1   51.3740   66.9960   27.3488
    388      1   36.2510   39.6280    1.9156
    389      1   51.3810   57.6700   12.9756
    390      1   36.1740   45.5260   23.3524
    391      1   36.1590   52.9370   37.3608
    392      1   36.1400   54.2460   36.7632
    393      1   36.0830   66.7640   25.6808
    394      1   51.3920   56.4440   15.0540
    395      1   63.9310   64.9010   10.3716
    396      1   63.9400   60.0700    6.1996
    397      1   63.9460   58.7830    5.4656
    398      1   51.3960   59.7900   26.8420
    399      1   63.9600   52.0280    2.2248
    400      1   36.0150   35.3370    0.2924
    401      1   35.9990   33.9230   32.3064
    402      1   51.4000   70.4360   14.7684
    403      1   51.4000   29.0170   36.6216
    404      1   64.0120   56.1510    4.1272
    405      1   64.0140   46.9330   17.3076
    406      1   35.9790   52.6560   20.1272
    407      1   35.9680   36.1300   29.1552
    408      1   64.0400   54.7440    3.4660
    409      1   35.9600   42.0630    1.5504
    410      1   35.8970   66.0100   21.5176
    411      1   64.1050   36.1680   39.3032
    412      1   64.1260   38.7620   13.0220
    413      1   35.8710   33.3060   35.8092
    414      1   35.8670   36.7120    0.9524
    415      1   64.1480   40.2190   38.3972
    416      1   35.8350   50.3170   38.5600
    417      1   35.8300   66.4830   22.8440
    418      1   35.8250   61.8350   18.5708
    419      1   64.1950   42.1580   15.0456
    420      1   64.2030   63.9320    9.3816
    421      1   35.7810   57.0490   35.4120
    422      1   64.2270   51.0260    1.7964
    423      1   35.7610   44.4870    0.8748
    424      1   64.2420   44.0900   39.0084
    425      1   64.2530   33.4690    3.4840
    426      1   35.7460   38.0230   27.5500
    427      1   64.2670   62.5830   21.1680
    428      1   35.7020   33.4760   34.5716
    429      1   64.3100   37.4060   38.8792
    430      1   35.6780   34.1160   38.2608
    431      1   35.6690   65.1040   29.0924
    432      1   51.4330   29.7920   35.3220
    433      1   35.6610   60.3970   18.4880
    434      1   35.6410   46.7870    0.0300
    435      1   64.3610   50.3560   18.8184
    436      1   35.6290   53.9170   19.7000
    437      1   64.3820   35.1090    9.3416
    438      1   51.4390   31.8750   33.3376
    439      1   64.4090   66.4860   15.6928
    440      1   35.5820   57.4680   18.7592
    441      1   35.5800   40.1060   26.1676
    442      1   64.4550   34.5690    1.2232
    443      1   35.5400   58.5030   34.5948
    444      1   35.5310   64.0350   19.8212
    445      1   64.4690   33.6000    4.9872
    446      1   35.4820   56.1400   19.0772
    447      1   35.4700   35.4820   30.2800
    448      1   64.5350   64.3890   19.8288
    449      1   64.5430   34.4210    7.9616
    450      1   51.4550   71.1310   16.1080
    451      1   64.5600   52.5340   19.7192
    452      1   64.5620   61.2010   21.2648
    453      1   35.4290   48.9850   39.0764
    454      1   64.5900   40.9380   14.3020
    455      1   64.6200   49.1810   18.2640
    456      1   35.3580   50.3040   21.2196
    457      1   64.6630   46.4180   39.8944
    458      1   64.6830   42.7340   38.9128
    459      1   35.3110   65.4190   27.9904
    460      1   64.7410   53.8230   20.1556
    461      1   35.2520   35.2050   39.1168
    462      1   35.2370   61.0780   32.9256
    463      1   35.2310   34.0730   36.9448
    464      1   64.7750   56.7740   20.9588
    465      1   64.8050   44.4040   16.0716
    466      1   35.1940   64.2380   29.8060
    467      1   64.8090   58.2500   21.1576
    468      1   64.8290   65.1950   11.7080
    469      1   35.1660   62.0910   32.0868
    470      1   35.1540   39.2590    1.1004
    471      1   64.8470   65.4960   17.8368
    472      1   35.1430   64.7540   21.0200
    473      1   64.8610   61.8450    7.7116
    474      1   64.8620   35.8160    0.4612
    475      1   35.1330   37.2280   28.5628
    476      1   64.8850   66.0110   14.3192
    477      1   64.9050   63.1610   20.2508
    478      1   35.0940   62.6870   19.5204
    479      1   64.9320   34.4210    2.5616
    480      1   35.0220   51.6390   20.7440
    481      1   35.0200   65.9510   25.0132
    482      1   34.9820   37.8140    0.5616
    483      1   48.4980   71.7440   21.7732
    484      1   51.5020   68.5640   12.5988
    485      1   34.9760   48.1210   22.2372
    486      1   48.4980   43.8420   35.8324
    487      1   34.9710   39.1600   27.0132
    488      1   65.0400   48.8980    0.9432
    489      1   65.0590   36.7960   10.8432
    490      1   34.9390   65.7670   23.6056
    491      1   65.0840   60.6860    6.9048
    492      1   65.1210   45.0730   39.6472
    493      1   34.8510   41.3160   25.6364
    494      1   65.1660   43.2160   15.4068
    495      1   34.8140   52.2750   37.5484
    496      1   48.4810   33.6200   31.2928
    497      1   34.7810   34.6630   32.8888
    498      1   65.2210   58.2070    5.4024
    499      1   65.2300   56.8460    4.6456
    500      1   65.2440   65.5420   16.5200
    501      1   34.7550   54.8900   36.3240
    502      1   34.7400   34.3610   34.2848
    503      1   65.2900   52.6110    2.6320
    504      1   34.7020   41.6900    0.8528
    505      1   65.2980   64.5320   18.5376
    506      1   65.3060   39.7550   39.2188
    507      1   34.6910   51.0360   38.0660
    508      1   65.3090   36.0150    9.6772
    509      1   65.3220   38.3870   39.5024
    510      1   65.3350   50.0750    1.4976
    511      1   65.3360   54.0440    3.2988
    512      1   65.3400   51.4710   19.1144
    513      1   34.5980   45.8940   23.3432
    514      1   65.4190   46.5540   16.9716
    515      1   34.5620   59.8360   19.2836
    516      1   34.5550   56.2260   35.6048
    517      1   65.4660   47.6310    0.5916
    518      1   65.4690   34.5540    5.5908
    519      1   65.5030   63.3110    9.6112
    520      1   65.5040   34.8820    7.1104
    521      1   34.4500   44.1890    0.3572
    522      1   65.5630   38.7540   12.3256
    523      1   34.4360   49.4000   21.7828
    524      1   65.5960   60.4660   20.5260
    525      1   34.3900   58.4080   19.3452
    526      1   34.3790   40.2400    0.5916
    527      1   34.3780   54.3570   20.0204
    528      1   34.3150   64.9060   27.3532
    529      1   48.4310   39.3280    7.2520
    530      1   34.2720   36.2620   38.6900
    531      1   34.2620   46.5450   39.6592
    532      1   34.2550   55.7110   19.7476
    533      1   34.2510   65.1520   25.9044
    534      1   34.2200   35.0730   36.5232
    535      1   34.2150   58.9580   33.9496
    536      1   65.7870   62.1600    8.5816
    537      1   34.2070   64.0810   21.8376
    538      1   65.8230   59.0330   20.4984
    539      1   34.1750   36.0370   30.9448
    540      1   65.8270   36.7670    1.0148
    541      1   65.8470   45.3500   16.3036
    542      1   34.1500   37.4950   39.4748
    543      1   51.5860   67.3670   11.7480
    544      1   65.8830   62.5950   19.3932
    545      1   34.1010   60.1650   33.0712
    546      1   65.9060   35.3340    3.1664
    547      1   34.0930   47.2310   22.8548
    548      1   34.0700   64.6210   23.0972
    549      1   65.9390   42.2510   39.5956
    550      1   48.4050   55.8330   20.7956
    551      1   34.0510   62.0750   20.4044
    552      1   65.9560   64.3540   11.9284
    553      1   66.0250   40.8990   13.6768
    554      1   65.9750   64.9540   14.3172
    555      1   34.0240   63.1800   30.0092
    556      1   34.0100   43.6820   24.5784
    557      1   66.0240   56.0960   20.1212
    558      1   66.0330   37.7750   11.0712
    559      1   33.9590   62.1540   31.1868
    560      1   66.0500   54.5210   19.7788
    561      1   48.3930   64.4750   12.0516
    562      1   33.9250   42.7300    0.2520
    563      1   33.9240   48.8680   38.7244
    564      1   66.0820   38.1000    0.4796
    565      1   66.1010   48.9400   17.8340
    566      1   33.8990   35.1920   35.1008
    567      1   66.1330   40.8560   39.7680
    568      1   33.8640   35.7010   32.2484
    569      1   48.3840   37.6260   30.5384
    570      1   33.8210   37.6630   29.1404
    571      1   66.1910   63.3960   18.2644
    572      1   66.2150   64.6190   15.6916
    573      1   66.2260   35.3360    4.6928
    574      1   66.2640   59.8810    6.9188
    575      1   33.7230   52.1640   20.9908
    576      1   66.2790   61.2820   19.5716
    577      1   51.6300   43.4830   37.6568
    578      1   33.7020   45.2220   39.7204
    579      1   33.6870   36.1730   37.4120
    580      1   33.6830   60.6620   20.2504
    581      1   66.3340   63.3980   10.7760
    582      1   33.6120   39.5470   27.4788
    583      1   33.6080   44.9720   24.0636
    584      1   33.6080   52.7380   37.0260
    585      1   66.3930   36.4330    2.3816
    586      1   66.3950   58.6900    6.1504
    587      1   66.3960   50.4740    2.0264
    588      1   66.4170   44.7170    0.2432
    589      1   51.6420   43.9390    4.2076
    590      1   33.5780   41.6290   25.9488
    591      1   33.5680   54.0450   36.3992
    592      1   33.5530   62.7500   21.5228
    593      1   66.4770   36.4390    8.7272
    594      1   66.4820   47.6340   17.1416
    595      1   66.4880   39.8790   12.6420
    596      1   66.4910   56.0740    4.6388
    597      1   66.5110   35.9940    7.5404
    598      1   33.4740   50.1070   38.0896
    599      1   66.5380   43.0740   14.8488
    600      1   66.5550   51.8800    2.6668
    601      1   66.5550   64.1820   13.2536
    602      1   66.5700   54.6790    3.9532
    603      1   33.4300   53.6200   20.6944
    604      1   33.3820   63.8640   27.7352
    605      1   33.3730   47.6630   38.8920
    606      1   33.3640   39.9070   39.5828
    607      1   33.3610   37.1200   30.3976
    608      1   51.6650   62.5390   27.8128
    609      1   51.6660   31.3350    7.3476
    610      1   33.3240   64.1860   25.4512
    611      1   48.3320   36.8570    7.8956
    612      1   66.6800   51.4510   18.5632
    613      1   33.3080   38.6080   39.0048
    614      1   33.2730   56.6560   34.9284
    615      1   66.7480   47.3150    1.0872
    616      1   33.2450   57.8480   20.2348
    617      1   33.2230   63.8390   24.0520
    618      1   33.2080   56.4790   20.3196
    619      1   66.7930   43.2500    0.2872
    620      1   33.2030   49.9010   22.0244
    621      1   66.8130   58.4150   19.6952
    622      1   33.1730   57.9350   34.0904
    623      1   33.1360   63.1100   28.8216
    624      1   33.0930   42.8900   25.4096
    625      1   33.0750   38.8460   28.5932
    626      1   66.9520   61.2310    8.6948
    627      1   51.6970   63.9980   27.9272
    628      1   66.9740   39.0220    1.1512
    629      1   66.9880   62.8780   17.2808
    630      1   32.9760   36.2430   34.5720
    631      1   32.9740   60.2060   32.2360
    632      1   67.0290   63.4740   16.0184
    633      1   67.0410   40.4110    0.7224
    634      1   67.0480   56.9550   19.5168
    635      1   67.0510   36.2840    5.2012
    636      1   32.9490   40.8060   26.9456
    637      1   32.9040   61.1830   31.1900
    638      1   32.9010   36.4510   33.1156
    639      1   67.0320   42.0770   13.9468
    640      1   32.8330   42.3540   39.4092
    641      1   32.8270   51.3300   21.7080
    642      1   67.1820   50.0940   17.8368
    643      1   67.1880   38.1170   10.2616
    644      1   32.8050   37.2070   36.8788
    645      1   67.2060   60.1110    7.8388
    646      1   51.7210   55.7790   17.6264
    647      1   32.7800   63.4690   26.5324